# vtk DataFile Version 3.0
vtk output
ASCII
DATASET POLYDATA
POINTS 10000 float
-14.4215 -24.182 4.85741
-2.11815 -43.8527 11.7255
-8.18909 -40.4324 10.6059
-0.164935 -45.6263 14.5276
-2.96846 -44.0117 12.0842
-5.91285 -37.2587 13.7578
-14.2877 -27.1752 6.98401
9.16064 -48.6918 10.8542
3.63802 -46.5578 11.4316
-13.3712 -28.948 7.8686
-12.6623 -31.0395 7.36917
-14.4481 -29.9906 8.2989
-3.44917 -42.2985 14.0227
1.89232 -47.2639 12.4733
1.03327 -45.2266 13.5989
-6.83796 -42.8705 10.6524
11.1751 -51.9655 8.35482
-4.56165 -40.1369 13.0228
0.930422 -45.239 12.0454
4.73472 -42.9888 13.1524
7.97082 -50.3677 6.6921
-3.76992 -41.6649 14.0664
-0.548829 -44.5242 12.6303
-14.8941 -26.2688 5.61627
-13.216 -30.621 8.45022
-14.1385 -27.3619 5.13266
-2.31708 -46.5479 6.72413
2.48073 -47.1959 15.1091
-13.5913 -28.15 7.63221
2.75551 -45.4742 12.4124
-14.672 -30.2578 5.62298
3.90224 -45.3044 11.6999
-14.3849 -25.8661 2.70461
-15.87 -26.7565 6.82709
-5.1039 -45.0497 10.1652
-0.0260673 -43.2305 12.6157
-13.1187 -29.8048 7.86788
-2.04965 -45.9456 11.4914
2.37001 -47.1905 10.9618
-2.61304 -41.3104 13.1849
4.72082 -49.0968 6.24759
-14.2726 -30.2109 6.22716
-1.72685 -41.66 12.7735
-7.35646 -42.8883 10.3856
0.0128021 -43.8402 11.9578
-8.54525 -41.4445 9.98836
-13.791 -30.1379 8.1529
-7.32161 -42.5644 10.7395
3.27198 -45.3291 11.5741
-2.01233 -46.387 6.19903
2.21863 -43.5093 12.5911
6.61555 -49.9967 10.355
-14.5585 -29.0182 8.06757
-14.6594 -29.7717 6.11234
-4.71882 -41.5788 12.9462
8.31788 -50.5815 9.31525
0.727786 -45.6315 13.5969
-13.4572 -23.4751 4.48789
-12.3062 -35.543 9.34032
-0.945373 -45.0133 11.2519
-12.7357 -33.9723 9.23146
-13.1163 -34.9962 9.16435
-13.0281 -25.4446 6.04409
-11.0528 -37.0633 9.61176
-15.4845 -24.3413 5.86799
-11.8305 -25.9726 7.17892
0.177715 -45.1317 15.6214
-12.4901 -33.6753 8.9732
-1.69312 -44.6898 17.8076
-1.85929 -43.6082 14.4555
3.5335 -47.528 13.6734
-12.8861 -30.1451 6.4732
-0.595477 -43.6804 12.4334
-14.6814 -29.1381 7.57644
-2.82754 -43.4019 14.4182
9.22125 -51.336 6.49436
1.1537 -45.8557 11.0243
-16.6028 -24.1507 3.21747
2.20444 -45.4361 11.3707
-11.1754 -37.0515 5.57425
13.9859 -52.1444 7.98531
-6.31569 -43.1124 6.06458
-13.1467 -34.5919 8.20054
-1.46204 -44.6336 12.9657
0.415238 -46.7836 10.9903
-2.14699 -41.7515 13.3633
-14.3917 -28.4666 7.89856
-9.60244 -39.7501 10.4978
-7.76613 -41.8629 6.61579
0.169785 -45.4606 14.1259
-15.7351 -27.7766 5.31691
-13.5982 -28.2268 7.11195
-3.14416 -41.4215 12.3626
-7.67519 -41.748 19.0721
-14.576 -27.4009 6.98524
-15.4742 -26.0619 6.46349
-15.3654 -28.8993 5.42945
13.7492 -51.6682 8.14284
-10.9563 -38.1682 9.89673
-15.0972 -24.4959 3.95267
-14.4786 -29.0748 7.56191
-13.9118 -27.9869 7.00597
-15.6615 -26.3861 5.71415
-1.17105 -45.4744 11.135
-12.9157 -33.5229 7.23532
-13.6151 -32.4865 6.66593
-3.9352 -41.3462 12.8756
-12.0048 -36.5554 9.26719
-2.58634 -43.4471 12.5255
2.82442 -45.0733 11.6943
-13.3319 -28.8624 7.32353
2.24704 -45.2957 12.0851
3.96429 -46.1904 12.6598
-0.47929 -45.5258 11.9026
-13.212 -31.7966 8.54651
-0.914304 -46.2195 11.0619
3.91419 -49.2643 6.92666
-8.52197 -37.4069 10.8102
-14.6908 -25.4002 5.03886
-13.9548 -27.5783 7.49679
-2.23139 -42.1892 13.5458
5.5143 -48.6344 15.7883
-13.7994 -30.1934 8.16809
2.13348 -45.076 12.939
-14.6375 -27.5158 6.98524
9.21644 -51.4747 7.64749
3.19383 -47.7629 11.0496
-4.90514 -39.4754 13.4127
-14.481 -26.6823 6.2443
-12.6415 -31.5437 8.67074
-7.24523 -43.1824 9.54391
7.82203 -51.1433 7.251
-15.2383 -26.9908 7.0475
-1.87198 -43.2207 12.2182
-4.47202 -42.8659 11.3998
16.3761 -53.3885 8.88828
-13.1598 -34.1357 9.49303
0.844475 -45.3493 11.9516
-0.602671 -43.4876 12.0794
-13.1763 -29.2134 6.8532
-0.197478 -44.9799 10.9641
-9.90689 -38.7085 5.96667
-1.77977 -40.8428 13.0534
3.89819 -47.3462 16.8939
-12.5406 -35.0379 9.82432
-3.16747 -41.8461 14.241
-13.6044 -26.5608 6.43279
-13.7634 -29.2851 6.99741
-14.6705 -23.3096 3.9794
-14.3267 -25.4655 3.09014
3.26397 -43.0765 12.8003
7.8967 -50.5914 6.54577
0.978491 -48.5152 5.57563
0.617832 -45.7039 15.1597
3.26843 -45.6234 12.4201
-10.8713 -36.5723 9.79551
-14.9289 -23.9677 3.60539
-12.1943 -35.181 9.14941
-5.14159 -43.6535 10.7844
-2.6169 -44.5832 11.4652
-15.3056 -26.4263 5.08425
-1.25422 -42.6524 12.8186
13.7647 -52.4496 7.87094
-3.88849 -42.6645 12.0197
1.03448 -45.9851 14.5673
1.58343 -46.8318 14.769
-14.3498 -25.3898 2.39375
-14.7003 -24.2207 4.70819
-8.84763 -40.1558 10.6254
-15.0547 -27.3046 5.62704
-13.3724 -29.8034 7.97254
22.6715 -53.1381 10.1043
4.39776 -48.2131 15.4991
5.39957 -48.5335 16.3411
-11.0409 -38.2723 10.1501
-2.12576 -44.0953 11.8162
-14.9168 -28.5551 6.10886
-15.1033 -28.3085 7.49324
-12.5447 -29.3091 7.91731
-15.3186 -25.3913 5.42611
-13.2469 -31.9315 8.5622
-14.9101 -27.2798 5.44414
-12.0769 -29.7158 8.72573
-13.6329 -25.7291 1.33981
-12.374 -35.422 9.58127
-1.98541 -43.6183 12.2363
-12.4352 -29.9927 8.22688
-1.77991 -45.3993 10.9206
3.59387 -46.5667 11.6383
-10.222 -38.8255 10.0683
-12.5437 -35.1712 9.04099
-1.89573 -45.9741 10.6763
-7.78121 -43.2984 10.2077
3.71279 -47.0346 12.0166
7.38382 -49.2817 16.102
-13.9673 -30.7551 8.22685
2.72372 -52.9299 7.49525
-1.76061 -43.5247 13.7988
-3.08604 -42.2577 12.7876
-13.0832 -32.5549 8.91587
-12.2059 -31.4344 7.3205
-0.808801 -43.5827 13.0971
-7.6641 -41.7883 6.48858
5.59196 -50.8389 6.07344
0.0865471 -43.2586 13.0314
1.14476 -42.5245 13.192
-12.2593 -28.3656 7.08915
-13.754 -27.2581 7.35762
-12.6145 -28.431 7.58416
3.94967 -48.0015 16.2762
-15.6324 -21.2695 3.1191
3.89182 -48.8632 5.80686
-15.0042 -25.8673 0.0394412
-13.7113 -29.3023 7.15733
-13.7303 -32.1069 6.97777
3.24402 -49.007 7.96884
-13.1979 -30.2841 7.93956
-13.3706 -32.413 8.7781
-2.00115 -43.9044 12.2593
2.77031 -49.3037 6.97735
-2.79152 -44.9229 11.8211
-3.45222 -45.0131 11.0505
-10.1267 -39.0999 7.13566
-13.5953 -31.0508 8.11742
-11.9915 -36.2209 9.93853
-11.9252 -28.6912 7.85401
-16.1407 -28.4171 5.22152
-9.54964 -40.6331 8.52484
-15.054 -29.4889 7.31296
-10.3922 -39.1805 10.3363
0.448111 -43.5453 12.9795
-12.897 -33.0282 8.83906
-12.269 -30.8048 8.65512
4.73465 -49.8205 8.81614
-15.2383 -27.3399 6.5303
-12.9398 -28.2904 6.26015
-12.5412 -34.9878 9.33354
3.61339 -48.267 12.1332
-14.0599 -31.6249 7.26858
0.999312 -48.879 8.81987
-5.25761 -43.5128 10.7558
-3.06615 -45.4762 11.3633
-12.5478 -26.9542 4.04246
2.77528 -45.252 11.9931
-7.93299 -42.291 9.98375
7.65397 -50.258 6.14165
-14.5221 -27.1416 6.42105
-7.85056 -42.5094 9.78429
-18.2561 -22.6851 3.02766
-12.2248 -31.6704 8.34388
-13.4524 -33.1593 8.9666
-14.699 -26.9003 5.13702
-9.82676 -39.6137 10.2402
-1.90543 -43.4799 12.0877
10.7617 -51.3582 6.72714
-16.389 -26.119 4.40097
-15.1627 -27.1128 6.56068
-2.94513 -43.0233 13.3857
1.53097 -46.0775 16.1942
0.360083 -48.2828 8.64531
25.394 -52.1593 10.0052
-13.9949 -29.7989 8.11411
6.076 -52.7605 7.91419
-3.67477 -41.9943 13.1817
-8.80146 -38.807 10.7209
-12.0537 -33.4456 9.04595
-15.3596 -26.2052 4.95752
-4.47337 -41.6606 12.8267
-3.94989 -45.6619 6.50147
-13.7433 -24.2667 5.48276
-13.8198 -22.3456 4.23007
-2.47126 -39.8183 13.3647
-13.1929 -25.9055 6.5806
0.960896 -44.4761 12.5652
-3.70197 -39.9417 13.067
-13.4505 -30.0822 7.46098
12.2471 -50.6916 8.73817
-0.657214 -41.8487 12.7079
-15.6865 -27.4642 4.76993
-8.27111 -41.7992 7.66812
-14.0898 -28.9 8.02868
-15.7954 -26.5045 4.30027
20.6859 -52.5562 8.83589
-3.46124 -43.1133 18.4677
-12.9426 -32.8664 8.42918
-6.19631 -43.7505 10.0584
-3.26809 -43.1685 13.7139
-2.48395 -44.0314 11.5574
-14.6114 -24.3843 5.06899
-1.78302 -45.1416 11.1512
-13.281 -30.184 7.98809
-14.5568 -26.3221 2.92204
-6.51909 -43.8169 10.2357
-2.95554 -42.3405 13.7492
-12.7594 -30.0493 8.41389
13.0495 -51.4994 7.49812
-9.7512 -40.1483 8.54086
-15.3047 -26.3784 5.31691
-12.1169 -31.24 7.92907
-6.91583 -42.7021 10.1507
2.6229 -50.5831 6.94075
-2.93857 -41.0809 12.8483
3.45748 -46.1401 11.9952
-1.65156 -44.3049 14.5706
-2.05241 -41.5935 12.8534
-4.92005 -41.4131 13.4394
14.3311 -50.4239 9.15969
-13.2432 -29.7288 7.98444
1.0759 -44.07 12.9668
10.0132 -51.6583 8.04104
-14.9536 -30.0184 5.51734
0.229679 -45.4655 14.1672
7.60904 -49.2856 14.1067
-5.15229 -39.3796 12.0742
-13.0105 -32.8875 9.08257
-12.9568 -32.8251 8.49626
3.32081 -44.875 12.4189
-0.996234 -43.464 12.9022
-15.0504 -25.9335 5.12149
-12.9444 -31.0707 8.27765
-13.789 -28.7537 6.02324
0.041051 -43.9779 12.3148
1.21994 -45.9969 12.0145
-0.779237 -44.6693 13.7448
-14.3202 -25.5055 6.31108
-9.51742 -40.7049 9.90062
10.8156 -51.2901 7.54322
-12.9235 -31.6528 8.46206
-11.2081 -37.1073 5.47181
-6.08052 -43.944 5.27555
2.76806 -47.3543 16.9669
0.667189 -46.0873 14.3917
-1.76693 -46.3689 11.1199
-15.4659 -26.3388 4.51541
-12.1754 -36.7984 9.26246
20.5248 -52.0175 9.20708
-3.79387 -40.7022 13.2239
-13.6892 -26.8572 6.91844
12.757 -52.4883 8.54267
0.726149 -44.3199 11.817
-13.9942 -31.0406 8.67171
11.7741 -50.4815 8.49129
-0.549501 -41.486 13.1214
-11.6466 -34.1633 8.90937
-3.61842 -41.6993 13.134
17.4118 -52.3462 9.80464
4.09188 -47.7939 16.3149
-5.11604 -40.0592 13.5515
2.29943 -42.6319 12.9165
-13.8335 -29.2135 8.10771
-12.6632 -26.7794 7.12184
-12.2997 -33.3565 8.90261
6.41083 -50.1049 6.76435
-2.31171 -45.6427 10.8796
2.11972 -45.814 12.2315
-15.5516 -28.1656 6.91417
-13.6342 -26.1184 5.49764
-13.1925 -30.5202 7.78433
-14.7725 -27.7896 7.27546
-14.3778 -29.9074 7.29809
-12.6301 -31.1453 8.16995
6.81179 -37.1988 26.8805
-12.6623 -29.0825 8.18541
1.9106 -46.4379 15.8612
2.32601 -51.6899 7.34017
-14.0473 -25.1718 0.370483
4.84724 -48.2503 15.4612
-7.48334 -42.2923 11.035
-15.0394 -28.1036 6.84236
0.837375 -45.8612 14.0951
-5.2301 -44.3598 10.1176
-1.24702 -42.0943 12.9299
-14.0304 -24.4959 0.720779
2.06284 -47.4017 11.6091
13.9721 -51.9952 8.7454
1.53374 -46.1435 17.579
-13.5727 -29.0206 7.35217
2.97486 -47.6634 12.2935
3.23815 -47.3965 15.3118
0.749498 -43.2565 13.6723
5.4037 -47.1382 11.5099
-14.5442 -26.0289 1.26738
5.03199 -48.544 14.8859
-13.8006 -27.0155 6.38253
-3.88122 -43.4019 18.1082
-2.86322 -42.4651 14.2941
6.27242 -46.4564 12.2858
-15.1134 -29.0726 7.7078
[...]
POINT_DATA 10000
SCALARS t float 1
LOOKUP_TABLE default
255.913
211.024
213.85
213.619
212.132
215.484
236.985
212.214
210.256
230.265
234.002
226.979
213.852
212.899
213.093
213.713
221.946
213.032
210.413
210.462
234.757
214.081
211.501
248.244
226.437
252.448
236.601
212.621
232.06
210.579
248.094
208.75
270.571
238.677
214.164
210.633
230.153
211.898
210.858
212.45
238.861
242.846
211.272
214.816
209.665
216.264
228.184
213.854
209.127
240.968
209.989
214.073
228.794
243.878
213.273
217.958
213.233
259.807
220.942
210.926
222.06
221.596
246.143
219.04
249.365
238.095
212.839
223.489
211.945
213.734
213.295
241.019
210.798
231.938
213.868
235.826
210.666
269.68
209.787
247.256
224.534
241.81
227.564
212.501
210.985
212.65
230.154
215.397
237.541
213.485
251.302
235.607
211.236
212.184
236.896
241.956
250.031
223.979
217.596
263.393
232.106
236.449
247.861
211.042
235.083
239.246
212.63
220.995
212.167
208.919
233.998
209.966
211.222
211.29
225.947
211.111
233.565
212.69
253.383
233.352
212.984
211.196
228.081
211.554
236.844
226.779
211.306
213.971
242.879
225.257
217.891
229.532
236.735
211.07
211.414
218.617
220.713
210.394
210.058
237.639
210.706
243.858
211.861
210.601
219.142
214.041
241.58
236.406
263.73
268.812
210.128
235.586
242.752
213.158
210.545
218.018
266.426
222.046
212.12
211.469
253.147
211.409
225.049
211.82
213.465
213.261
272.719
256.991
214.47
248.212
229.459
218.065
211.637
210.692
216.835
211.317
243.956
232.785
229.977
250.415
225.856
249.771
225.073
279.63
219.943
211.437
227.845
210.936
210.156
216.581
222.599
211.461
215.535
211.189
210.733
227.569
224.368
213.187
212.304
223.911
234.592
212.023
238.627
237.906
211.55
211.467
236.314
234.575
232.489
210.97
271.895
241.959
291.202
235.165
236.747
226.665
229.689
224.612
211.654
232.635
212.073
211.511
234.826
228.488
218.177
230.828
252.388
224.652
233.853
216.183
211.431
224.354
225.194
220.401
240.6
242.644
221.197
213.085
234.316
220.377
212.233
211.912
262.323
209.572
216.051
238.922
241.297
216.979
273.325
227.169
223.387
252.465
216.126
211.078
234.359
259.873
240.381
213.088
211.824
221.906
219.165
228.424
222.581
213.061
213.521
222.948
254.296
213.023
238.017
251.703
263.118
212.923
241.653
210.789
212.686
232.98
221.908
210.698
256.023
230.295
229.25
260.178
221.899
212.092
226.737
214.88
213.509
211.227
254.11
211.114
229.357
269.033
214.716
213.423
226.668
228.504
224.759
251.097
229.996
214.907
230.454
211.912
210.147
213.768
211.583
213.959
220.745
229.402
211.451
224.087
249.046
213.491
212.452
211.27
222.983
226.323
210.074
211.713
252.67
227.563
244.584
210.417
210.873
213.218
243.527
217.14
228.249
226.46
247.952
247.274
210.72
213.51
211.51
258.242
220.776
221.11
213.031
237.81
220.529
209.341
224.977
223.505
211.699
223.616
212.913
217.052
210.921
214.246
210.471
228.661
237.031
223.885
233.999
211.01
210.678
237.332
249.33
230.755
234.624
234.041
228.298
212.858
228.374
211.957
226.236
286.259
211.605
213.596
237.856
213.477
214.217
211.494
284.759
211.692
220.194
211.123
233.728
212.736
212.149
212.848
210.418
279.411
212.193
241.59
212.235
213.905
209.808
230.865
220.675
221.227
211.887
208.009
220.922
216.251
212.542
210.414
212.809
243.296
211.164
211.57
212.146
219.938
229.109
231.711
252.888
211.024
227.072
238.234
220.41
211.467
217.259
210.58
275.806
211.202
228.773
237.944
215.024
233.052
213.44
235.639
235.093
222.886
240.094
212.552
269.616
217.747
235.524
238.344
275.27
210.994
245.541
254.585
224.125
220.949
219.72
249.386
234.047
243.794
211.018
239.2
213.782
227.812
235.765
210.176
216.816
232.82
238.862
211.355
237.889
212.48
230.116
227.942
211.986
240.34
249.161
210.033
229.616
208.955
213.344
209.225
222.425
236.215
212.305
252.554
274.125
252.942
224.36
209.847
213.477
214.833
221.679
213.886
225.1
223.873
234.519
223.274
225.285
214.558
272.39
245.235
210.538
229.673
212.213
216.875
211.934
245.608
223.689
211.38
213.28
232.826
235.578
240.161
239.134
212.85
238.41
211.776
211.355
230.771
238.523
244.954
246.732
210.914
223.959
249.75
210.985
217.553
211.103
209.979
242.384
213.111
214.618
237.719
213.839
241.223
246.333
228.208
211.453
231.522
213.476
210.433
210.705
235.713
260.838
213.636
231.237
211.378
213.162
219.086
245.77
230.76
212.632
225.757
243.026
239.444
213.255
211.52
248.158
215.423
231.558
220.692
235.245
225.604
212.773
219.18
242.172
210.618
239.198
219.964
248.058
225.295
245.869
256.674
236.773
212.277
233.126
232.472
213.424
237.367
209.934
211.254
213.32
211.163
221.737
211.555
211.709
239.851
225.155
252.378
212.204
226.455
232.478
243.977
218.613
235.737
211.137
212.723
210.968
212.306
223.236
210.447
240.354
213.111
211.963
213.885
210.104
246.736
242.049
227.843
246.955
221.731
280.174
212.472
213.301
213.035
247.892
223.205
215.28
272.39
239.347
211.463
234.414
211.041
226.318
233.527
211.858
264.308
229.272
237.891
214.645
216.13
212.427
212.898
211.821
232.515
228.239
211.137
212.752
220.095
211.423
219.735
236.549
211.084
216.318
233.551
212.158
212.878
229.653
211.311
237.322
257.118
227.124
226.761
221.83
213.749
213.332
262.233
227.257
221.891
212.672
234.009
212.096
223.191
214.561
211.372
240.62
230.362
240.673
210.339
209.702
213.62
211.234
210.715
245.293
227.692
259.715
234.726
247.329
274.009
228.241
225.934
212.779
232.62
239.324
224.717
220.998
224.827
229.929
227.805
211.424
211.615
232.699
211.634
236.052
236.062
211.992
210.369
213.605
209.779
211.486
211.102
210.079
211.593
253.2
211.256
228.109
259.735
211.716
213.535
234.362
250.929
211.357
219.349
211.617
239.258
216.587
231.766
227.273
242.432
221.842
224.06
233.215
210.496
238.003
219.011
211.549
253.705
211.021
212.526
211.445
249.77
252.647
210.87
232.112
211.593
229.43
244.135
211.12
231.96
212.77
210.903
230.198
210.682
212.5
209.288
236.176
231.774
245.305
211
210.89
239.545
214.602
222.902
212.169
224.945
249.332
230.969
211.078
269.81
211.124
231.21
236.269
250.741
237.138
246.942
239.927
213.778
231.043
230.318
212.347
212.429
228.562
213.546
210.816
216.31
210.401
241.632
247.683
239.409
211.328
218.234
246.841
231.555
231.04
226.085
226.441
238.925
245.71
245.828
219.962
240.21
235.066
224.175
211.467
211.214
240.194
212.275
258.212
249.208
208.985
229.819
244.589
211.674
234.221
211.572
213.019
224.934
242.959
233.457
213.89
211.58
222.722
227.822
245.679
229.605
219.1
229.896
225.653
257.249
274.997
226.853
211.065
247.129
214.378
212.319
213.334
221.502
216.677
220.939
215.392
208.982
229.719
211.765
231.58
211.813
214.104
246.481
239.632
260.388
270.632
237.696
269.017
209.979
243.398
235.906
249.113
235.369
211.965
227.832
227.196
210.866
229.214
210.681
218.321
212.864
275.788
246.175
211.43
227.227
218.049
213.104
251.525
211.192
247.036
226.99
228.73
213.798
231.922
269.872
225.724
211.7
210.799
231.309
238.746
237.854
216.492
211.274
215.465
212.362
220.141
228.182
227.531
232.087
212.261
210.057
225.538
213.117
242.415
237.504
211.469
267.87
210.948
211.827
211.212
209.173
241.837
233.986
225.745
213.441
209.55
238.454
213.333
219.047
275.889
216.8
212.202
247.373
212.617
234.312
210.897
211.037
251.783
246.691
212.384
211.923
244.459
236.159
210.647
232.664
238.721
233.121
218.2
215.29
211.713
217.45
211.388
217.68
212.746
236.323
212.016
212.26
212.226
218.738
212.385
218.088
210.862
237.376
239.438
210.306
211.426
212.209
216.9
211.467
222.296
220.917
211.159
218.725
218.961
227.257
213.685
213.118
250.271
229.701
212.692
271.312
211.077
243.962
213.691
249.225
227.033
238.58
213.571
258.434
211.562
214.403
222.211
233.908
241.025
210.921
227.784
221.355
211.527
213.357
237.362
231.291
246.201
236.134
211.398
238.349
211.301
211.347
220.618
231.506
208.035
228.24
263.207
246.294
211.938
211.236
210.177
212.194
260.997
210.79
236.324
211.647
234.729
258.822
223.443
211.049
239.299
214.327
211.606
212.772
224.246
213.33
211.728
211.803
218.291
228.299
233.098
210.278
213.082
212.074
252.543
239.681
210.3
232.44
229.231
211.547
212.261
235.257
213.088
213.616
214.362
212.159
239.019
223.333
234.868
239.94
212.496
233.239
211.457
221.393
231.535
243.263
224.433
212.129
211.368
212.363
243.052
266.278
220.237
233.887
213.523
220.865
220.416
211.82
224.68
210.694
213.696
215.259
237.626
211.678
228.147
212.966
235.979
261.552
213.523
208.32
237.928
245.195
229.425
255.403
245.692
236.735
245.539
258.381
239.794
225.944
241.725
211.015
212.825
236.731
236.123
235.392
262.372
279.095
235.013
227.63
244.801
211.777
213.432
222.556
250.971
232.039
211.531
215.282
209.891
243.845
212.211
230.676
286.906
211.453
235.774
219.503
213.699
209.816
266.16
237.174
263.457
209.054
216.115
227.842
233.176
216.145
250.42
233.111
214.786
232.412
211.804
226.986
231.864
263.403
211.483
269.42
245.072
211.852
238.095
244.781
211.172
209.867
225.981
211.234
246.058
213.428
246.697
212.906
245.95
273.021
233.785
247.253
210.632
214.651
283.842
249.075
211.447
211.24
239.625
212.794
231.777
211.476
237.32
229.549
231.503
216.557
238.905
219.432
256.08
210.946
211.874
212.77
211.529
235.03
212.505
213.43
210.369
225.7
228.723
253.977
218.497
224.043
247.538
212.877
216.684
210.726
236.397
218.394
212.936
234.72
225.98
210.964
227.4
211.104
229.307
214.314
219.692
211.43
222.157
220.815
210.524
212.503
234.794
221.963
232.834
222.294
266.121
229.302
223.314
212.839
232.707
212.906
236.645
227.704
221.496
219.153
226.671
215.613
249.034
227.074
238.093
223.516
244.504
211.628
211.46
209.714
210.27
244.689
211.027
239.199
243.831
222.639
211.305
219.541
232.661
211.309
211.059
209.893
236.376
223.695
232.018
212.746
215.138
211.494
229.935
227.851
251.011
211.693
239.101
229.382
208.981
239.285
221.233
236.466
231.201
213.558
243.798
236.251
223.59
213.324
209.582
221.711
232.092
213.98
220.567
214.751
213.183
239.383
213.003
230.215
228.506
270.355
233.109
212.119
232.82
243.702
235.614
213.395
212.901
224.875
274.626
211.489
211.05
226.317
239.479
216.204
237.588
219.147
230.536
215.249
231.648
228.986
265.848
212.119
224.635
228.84
210.668
213.269
279.247
237.288
211.108
213.713
213.043
211.055
266.731
247.369
212.035
214.53
212.137
219.395
214.37
211.927
213.08
268.07
222.108
240.109
213.009
211.995
252.323
212.921
213.198
211.862
212.976
212.298
241.54
242.696
214.223
227.654
210.19
211.641
210.7
246.75
215.456
213.172
211.752
228.278
249.378
211.67
221.727
223.195
212.136
212.914
239.009
231.104
224.716
262.832
225.499
227.652
210.416
229.629
237.107
261.113
209.935
212.217
261.456
210.749
231.474
223.577
209.888
210.372
211.774
274.608
217.597
240.492
213.228
225.9
232.012
225.611
252.537
271.432
214.271
213.342
214.25
212.28
240.037
229.927
220.41
245.024
210.325
228.795
211.241
229.833
226.214
227.915
226.281
211.845
211.186
237.303
216.333
210.918
213.149
216.795
212.709
230.151
209.165
232.253
212.534
223.543
228.032
227.247
216.071
216.958
242.537
250.763
231.109
211.636
256.01
211.983
236.108
213.029
233.152
218.754
232.033
209.491
213.533
212.528
215.437
218.308
229.348
212.357
210.156
227.902
219.562
230.243
214.724
210.56
213.333
223.718
225.76
256.532
210.872
217.321
227.126
224.457
230.14
237.828
217.285
264.486
229.281
231.775
211.67
233.649
230.566
242.483
219.194
247.71
236.528
211.595
217.978
234.93
229.274
243.719
210.758
237.396
223.778
210.997
238.68
211.75
241.932
243.912
265.791
213.656
210.656
210.404
235.019
211.411
225.68
210.627
211.917
213.904
213.383
267.653
235.398
212.361
210.076
211.677
223.815
246.558
232.29
210.853
210.725
215.086
223.877
220.635
233.383
214.015
210.73
210.312
238.915
211.867
225.121
222.725
226.963
212.893
211.274
242.506
282.362
212.039
213.654
250.524
212.106
252.093
212.111
257.013
245.725
210.699
220.211
244.995
246.635
215.983
227.75
213.368
228.453
245.748
226.295
213.4
210.965
220.937
209.697
248.065
236.68
212.121
248.264
234.81
209.608
212.032
211.608
213.884
214.163
232.408
212.929
242.98
225.602
230.204
212.591
220.933
209.432
219.133
211.252
279.13
226.054
212.567
215.93
210.799
275.442
255.908
211.492
211.308
236.522
222.939
238.61
211.615
211.653
224.089
225.768
230.09
236.84
212.209
212.876
213.453
240.288
218.73
269.541
214.063
252.696
227.748
224.378
222.06
240.022
217.393
240.889
212.122
224.343
226.541
211.014
216.12
226.971
258.434
230.483
248.132
235.95
224.991
210.936
213.93
252.497
251.716
221.394
230.936
209.266
218.952
233.401
212.044
242.244
227.49
234.203
225.105
210.581
232.573
257.182
256.188
211.828
222.682
212.023
210.312
223.81
214.206
243.492
228.305
211.97
267.982
241.126
215.025
249.734
213.695
233.814
225.782
212.832
251.911
235.672
211.489
213.656
226.696
209.635
230.9
245.6
209.87
240.508
209.826
252.089
213.27
213.048
253.521
241.239
211.25
229.444
239.904
211.949
266.072
243.91
211.39
233.515
212.002
210.398
216.993
228.515
208.892
225.375
211.872
226.994
237.33
227.31
257.054
233.841
237.822
219.065
250.21
238.071
212.382
233.343
233.765
217.178
246.747
222.462
223.213
247.048
226.484
221.308
212.283
244.417
239.778
233.353
231.908
229.705
213.513
209.312
211.731
211.181
216.972
228.92
236.588
213.412
213.589
213.257
221.301
234.065
218.987
229.591
211.585
227.481
226.418
217.636
211.057
224.501
224.507
223.892
231.56
230.413
228.737
212.204
211.914
227.128
228.059
210.443
286.483
229.738
211.855
220.483
288.503
235.644
230.935
210.431
227.627
227.788
241.952
264.853
230.553
213.221
210.995
284.156
209.864
211.202
214.689
243.741
239.828
239.441
225.672
228.339
211.198
223.152
227.278
216.676
256.781
235.934
229.775
257.402
220.693
212.82
214.585
218.004
215.333
252.495
235.119
219.826
231.393
240
258.725
213.373
214.547
221.212
210.905
211.48
237.789
215.278
231.323
210.604
211.757
229.126
211.798
208.72
224.399
240.347
241.22
237.143
228.275
277.214
210.325
217.009
214.511
238.192
209.982
251.927
238.957
240.562
237.295
229.501
217.457
214.452
222.808
230.308
214.765
214.616
230.901
211.927
212.372
241.86
254.66
233.467
212.82
213.217
213.461
238.887
246.245
234.915
218.5
233.038
216.641
230.375
209.816
212.007
223.18
211.526
224.212
231.453
209.928
213.749
210.797
222.918
213.54
219.516
212.134
223.056
267.329
208.541
212.075
241.493
212.048
211.494
246.975
232.581
269.449
242.151
211.372
248.082
211.164
239.957
227.721
227.191
218.47
210.945
234.944
217.803
262.951
211.745
211.995
257.823
231.061
219.383
210.487
212.946
209.653
212.214
240.859
238.468
224.609
247.032
229.48
211.782
211.349
236.973
239.905
211.451
263.214
220.58
212.716
238.734
212.308
210.82
241.385
230.878
291.576
216.947
239.16
222.082
217.38
232.791
237.285
239.745
284.898
231.613
244.955
212.552
213.403
231.639
228.484
247.579
234.843
237.719
215.503
212.465
220.803
222.292
225.72
212.706
242.202
210.603
211.088
218.837
212.141
231.918
211.97
222.539
221.26
212.723
212.267
212.021
232.116
210.85
211.04
218.617
226.701
246.097
210.226
235.304
251.646
215.199
212.455
212.822
223.962
254.677
226.796
211.951
253.794
216.659
251.864
218.002
240.129
225.157
231.006
234.83
236.544
211.127
210.824
227.162
211.299
211.793
211.163
215.85
227.204
246.291
233.666
230.198
223.306
212.056
252.165
214.719
226.213
213.351
239.517
211.281
230.053
219.993
210.878
221.578
211.827
241.78
211.068
213.507
220.907
241.52
211.827
261.841
213.714
228.361
211.309
212.149
238.903
246.863
225.748
225.771
224.704
218.887
214.067
209.621
227.823
244.871
245.288
227.217
240.684
235.455
245.018
238.865
218.228
276.714
224.958
257.13
235.006
210.232
236.89
229.259
214.606
211.193
219.123
230.253
229.935
225.173
219.382
239.542
252.275
240.948
211.302
218.589
229.354
248.746
208.478
231.395
218.965
239.257
265.588
229.934
223.37
212.036
210.58
232.96
213.103
240.087
235.53
248.715
210.595
233.393
212.822
210.531
242.671
241.511
226.001
239.928
212.59
244.619
226.177
232.927
211.322
217.935
213.8
225.409
226.774
213.272
231.125
213.701
225.095
214.586
213.576
227.117
209.668
263.983
210.796
234.121
272.783
234.671
238.803
266.232
214.954
224.92
212.066
238.825
223.212
224.762
213.557
210.069
227.408
236.495
241.615
247.104
231.797
225.887
213.222
213.197
274.922
209.632
224.588
250.565
210.963
211.526
239.26
226.509
249.363
241.138
224.681
212.04
235.517
219.066
235.828
231.045
232.617
213.402
229.403
211.817
210.451
213.968
222.126
234.259
214.283
212.197
212.812
252.073
212.55
269.841
230.467
230.44
212.296
236.046
233.066
226.468
269.887
216.76
216.937
240.549
211.389
225.608
226.619
234.742
213.295
215.298
213.876
238.295
217.408
215.476
211.618
213.789
257.011
213.882
247.234
215.362
249.074
210.395
224.946
243.819
220.148
283.137
238.211
233.214
209.854
215.809
266.211
239.109
213.992
227.402
211.236
224.958
213.127
231.13
212.964
215.6
243.898
239.122
211.777
209.89
210.154
211.66
229.544
211.945
218.85
231.454
211.466
215.786
218.246
269.167
211.265
211.13
220.62
244.18
234.899
232.034
237.962
210.381
245.443
216.384
228.701
211.222
211.264
251.057
211.47
212.14
241.898
225.402
228.001
235.348
222.958
209.808
215.705
211.02
228.121
210.896
210.462
255.062
237.577
227.176
264.007
225.897
239.618
211.731
211.018
212.904
210.428
212.543
234.075
232.634
239.694
210.522
213.861
214.908
214.834
227.13
211.736
211.44
214.911
211.118
227.089
242.096
221.334
211.028
237.717
210.116
236.323
231.654
211.055
211.08
237.343
215.239
224.83
211.9
235.947
255.454
220.44
240.513
224.08
226.018
242.328
210.236
242.02
239.731
207.951
247.975
261.903
232.323
245.681
212.197
241.787
213.848
212.582
212.288
220.61
256.969
220.687
212.31
253.741
249.936
218.496
242.859
213.512
284.064
211.151
224.149
217.083
245.688
246.224
224.21
210.963
226.996
234.258
209.448
215.099
211.981
231.234
218.761
230.852
235.255
232.044
228.319
274.508
231.592
209.244
211.19
219.463
240.536
210.915
235.339
227.777
252.575
240.833
213.512
232.519
212.177
212.714
231.067
264.04
222.85
219.501
239.693
241.087
218.39
213.01
238.256
252.714
218.433
232.867
212.437
212.819
215.595
243.163
211.36
231.093
210.223
276.455
245.535
213.462
231.872
271.621
223.006
213.001
211.093
208.885
213.393
229.448
230.021
232.824
212.363
231.064
230.3
236.342
241.724
218.854
211.827
251.136
210.96
230.688
240.429
213.589
235.187
238.013
211.776
209.99
278.482
237.198
211.795
213.158
222.262
219.563
220.121
243.299
229.264
210.887
210.901
241.468
245.331
210.214
218.581
210.696
211.664
210.105
211.601
240.804
233.052
216.47
253.527
217.063
242.401
248.192
212.39
246.756
213.734
249.519
226.74
258.746
241.193
210.343
224.921
244.494
212.731
231.102
210.689
232.895
228.612
211.558
216.662
213.1
237.422
211.728
239.753
255.653
236.487
213.575
225
222.681
259.852
213.7
216.55
216.31
255.807
212.014
230.685
238.394
223.952
210.226
211.352
215.561
232.3
284.841
213.769
237.696
211.26
233.56
239.788
247.027
212.245
225.083
212.098
230.691
239.772
235.338
213.047
250.831
226.6
218.167
220.313
223.177
211.802
212.395
213.251
211.163
238.789
235.677
210.986
220.796
248.167
221.931
210.867
231.943
213.422
241.654
213.516
225.819
288.182
230.026
211.117
243.13
236.386
211.531
251.541
259.69
211.071
212.069
213.975
222.644
213.353
239.922
255.604
213.549
232.013
240.652
213.731
223.384
215.982
245.601
227.928
227.928
230.344
217.53
213.45
222.606
211.357
232.17
244.263
231.033
213.393
232.325
212.717
235.929
222.152
212.484
239.527
213.657
211.599
232.439
236.878
211.313
230.737
226.071
211.404
251.322
222.567
217.104
247.965
213.663
230.061
213.667
212.889
227.094
210.527
211.022
210.457
244.214
210.746
214.438
211.991
212.327
238.679
241.531
212.58
213.532
212.116
224.498
230.761
228.088
217.917
225.538
212.304
210.841
212.059
224.494
210.951
227.158
221.234
234.877
212.643
213.113
241.545
212.245
212.668
237.728
211.059
209.787
225.193
235.28
239.096
216.793
253.438
210.777
226.951
212.042
212.141
217.182
213.298
212.551
211.53
217.678
239.276
210.489
221.528
213.705
238.309
213.969
225.489
211.386
223.29
210.713
227.78
237.336
231.01
216.471
228.366
230.151
247.441
232.16
215.984
223.57
230.571
209.528
216.123
262.079
236.595
212.623
211.318
216.219
217.717
216.429
225.364
238.097
225.869
237.149
217.732
258.36
212.363
210.94
247.548
225.513
212.642
209.849
244.047
224.823
210.522
227.076
242.298
211.49
231.779
212.852
212.917