# vtk DataFile Version 3.0
vtk output
ASCII
DATASET POLYDATA
POINTS 10000 float
-47.7631 -44.3141 8.81889
-43.3236 -39.3198 12.7449
-42.8107 -41.4574 11.3446
-46.0192 -39.1593 14.9359
-43.1011 -40.4536 11.8803
-45.3993 -39.0817 14.4475
-47.2505 -43.9907 9.90354
-43.1106 -40.7517 11.7616
-42.6695 -40.3915 11.6449
-43.1938 -42.8418 10.4078
-47.5783 -44.7147 9.83064
-45.4568 -43.8688 10.3701
-45.8432 -39.2489 14.5451
-43.4927 -40.0558 12.5911
-44.3968 -39.4851 13.5101
-42.8088 -41.0337 11.5974
-47.033 -44.5458 9.3862
-45.2201 -39.0864 14.2617
-42.6956 -40.0701 11.7452
-42.8347 -40.0587 12.1472
-55.1752 -44.6552 7.64683
-45.9374 -39.272 14.5529
-43.9324 -40.1866 12.9489
-48.5485 -44.4719 8.72975
-45.2918 -43.8968 10.4669
-48.0958 -45.1095 9.08668
-51.3836 -45.3635 8.54913
-47.0093 -39.5918 15.414
-44.9028 -44.2969 10.3212
-43.4913 -39.3544 12.9283
-51.8871 -44.6433 7.79977
-42.1557 -39.9284 11.5825
-47.0391 -44.9033 9.77879
-44.625 -43.6304 10.1696
-42.3634 -40.3162 11.3671
-44.0393 -39.9394 13.1043
-44.6859 -43.6237 10.4272
-42.5054 -38.5409 12.0938
-42.7455 -40.2879 12.0301
-43.7867 -38.9864 13.3844
-49.753 -44.4801 8.4215
-46.8479 -44.4781 8.91355
-43.2585 -40.1303 12.5379
-43.5958 -40.7778 11.994
-42.7868 -39.9489 11.7029
-42.541 -40.8632 11.2951
-43.022 -41.3486 11.2828
-42.7874 -41.169 11.3542
-42.8594 -39.8226 12.0095
-48.6709 -44.0354 7.97011
-43.6325 -39.3939 12.6993
-45.1244 -44.0648 10.3988
-44.8279 -43.7939 10.553
-45.4606 -43.9494 9.05107
-43.0287 -38.9281 12.442
-48.0668 -44.7629 9.50223
-44.9335 -39.2666 14.1082
-45.2774 -43.3828 8.6728
-47.4548 -44.634 10.0524
-43.4246 -41.5433 11.8449
-44.1466 -43.2765 10.3518
-45.2988 -43.6585 10.6559
-45.8428 -44.445 9.36304
-43.3035 -42.0335 11.175
-46.7458 -44.3674 10.2727
-44.9672 -44.0778 9.31656
-47.4866 -39.8438 15.8307
-44.3678 -43.3953 11.0322
-51.9589 -38.7758 17.8011
-46.5044 -39.7569 14.7692
-44.5536 -39.4114 13.5888
-49.5502 -44.9008 9.22785
-44.0991 -38.6154 13.4053
-49.8409 -44.9026 9.51014
-46.6031 -39.4922 15.0167
-48.5975 -44.1479 7.86429
-43.0571 -39.1376 11.8424
-47.4942 -44.6518 8.01147
-42.6631 -40.0622 12.1908
-52.7495 -44.5302 7.52102
-52.8255 -44.9897 8.79399
-49.8698 -44.1476 7.52564
-44.8243 -43.5438 10.6636
-43.8522 -39.1592 12.9005
-42.4828 -39.942 11.7576
-44.5927 -38.996 13.8202
-44.2541 -43.5345 10.6233
-43.3089 -41.968 10.8701
-50.9347 -44.9987 8.70699
-45.4733 -39.1275 14.2778
-45.8168 -44.1426 8.92584
-44.2927 -43.855 10.2156
-43.0802 -39.0359 12.4969
-54.1154 -38.6151 19.0921
-47.5052 -44.6 9.7606
-43.0788 -41.9903 10.7049
-50.6861 -44.3837 8.00682
-48.2181 -44.0401 8.56787
-42.8733 -40.445 11.7841
-46.0394 -43.2861 8.31432
-46.373 -44.4821 9.73212
-46.0543 -44.3752 9.97005
-46.3217 -44.3634 9.17629
-43.1177 -39.1478 12.5377
-45.967 -43.7861 9.23062
-47.9395 -44.5761 9.84166
-44.4101 -40.1184 13.2424
-42.9384 -40.1307 11.6354
-43.5826 -39.7666 12.0974
-43.7321 -39.3594 13.1929
-43.5868 -42.9614 10.741
-43.3992 -40.287 12.3358
-43.5278 -39.3891 12.6504
-43.507 -40.3188 12.7324
-44.229 -43.4131 10.4845
-42.9085 -41.758 11.2275
-45.6012 -43.8566 8.79157
-42.7565 -41.9771 10.7592
-44.4797 -43.5439 9.87812
-43.006 -42.4608 10.6034
-44.2255 -39.0219 13.5758
-48.0334 -39.9698 15.7074
-42.7954 -41.7818 11.25
-43.1584 -40.6556 12.2348
-44.088 -43.3804 10.36
-51.7294 -44.7217 8.45416
-42.5723 -39.0467 11.2819
-45.2741 -39.4014 14.2218
-45.4609 -43.9178 10.2059
-44.035 -43.3822 10.3754
-43.7122 -42.229 11.0091
-51.4033 -44.5145 7.76887
-45.9396 -44.4376 9.97841
-43.0213 -40.5158 12.1141
-42.9111 -41.6856 11.3589
-50.7312 -44.9937 8.74608
-43.1596 -42.3347 10.8037
-43.0649 -40.2902 11.8158
-42.5713 -38.3551 12.14
-44.9637 -43.8876 9.75018
-43.1351 -41.5387 11.3331
-51.4271 -43.5119 7.41352
-43.7653 -39.249 13.2344
-48.3263 -39.5013 16.6473
-44.1362 -43.0629 10.8614
-46.0781 -39.2822 14.6268
-45.723 -44.5556 9.62517
-46.8968 -43.8199 8.73977
-44.916 -43.7039 8.95181
-46.6022 -44.4034 9.08392
-43.5962 -39.515 12.9491
-53.6557 -44.6302 7.67671
-53.9052 -43.6005 6.64249
-46.9437 -39.4434 15.3472
-42.901 -40.3928 11.8453
-42.4912 -40.6161 11.005
-46.5456 -44.2348 8.39267
-43.8503 -42.5897 11.2084
-43.1679 -42.6608 10.7342
-42.4341 -40.2276 11.6114
-43.9372 -43.6311 10.0995
-43.649 -40.7422 12.0197
-53.0355 -44.722 8.18486
-43.6492 -40.2706 12.4159
-44.994 -39.3729 13.9223
-46.8517 -39.9327 15.202
-46.2353 -44.0288 9.83181
-45.4213 -43.774 8.91923
-43.9447 -42.0623 11.7906
-48.9717 -44.4744 8.59775
-42.5839 -41.0479 10.9173
-45.6088 -44.2564 10.1321
-47.3469 -39.6788 15.5362
-48.5769 -39.259 17.0192
-43.9522 -42.9661 11.1533
-44.2938 -40.7883 12.4082
-43.6042 -43.2373 9.48098
-42.6538 -42.0503 10.8342
-43.155 -42.072 10.9201
-46.4893 -44.4473 9.89159
-42.943 -41.7873 11.0099
-43.3837 -42.6839 10.5588
-46.5352 -44.1703 10.1148
-43.4565 -44.5122 9.53674
-43.755 -43.1193 10.6299
-43.2434 -40.4084 12.3326
-43.6989 -42.6594 10.7286
-42.9785 -39.7546 12.0965
-43.7153 -39.1051 13.1803
-43.3228 -42.7215 10.7292
-42.4549 -41.2016 10.8477
-43.2533 -40.8613 11.659
-43.3677 -42.0057 11.2475
-43.4733 -39.7938 12.595
-47.8843 -39.7342 15.932
-43.744 -42.6428 11.0969
-55.1155 -43.5649 6.66223
-45.3493 -39.595 14.0711
-43.0491 -40.1392 12.6522
-44.5699 -43.7571 10.3583
-45.0738 -43.7901 9.95026
-43.6719 -39.2104 12.7036
-47.6199 -44.3873 8.96937
-49.2475 -44.9454 7.89799
-43.0244 -39.1993 12.5952
-42.5376 -40.2943 11.7429
-44.5302 -43.7009 9.62643
-44.6962 -43.8877 10.4488
-46.1157 -44.1414 10.3571
-48.453 -39.7102 16.2329
-48.4447 -44.8891 8.38561
-53.2632 -44.7908 7.75063
-44.2306 -43.6269 10.1633
-44.747 -43.6902 10.3888
-46.1541 -44.6401 9.47728
-52.5404 -45.2312 8.94476
-42.6579 -42.2739 10.5726
-42.5096 -41.41 10.7845
-43.8746 -41.5352 11.9164
-49.1968 -44.6175 8.6582
-42.8442 -40.004 12.2969
-42.5786 -39.5548 11.5071
-49.1527 -44.7787 9.31138
-43.2183 -41.6675 11.534
-42.5623 -41.3385 11.2442
-45.6918 -44.4626 9.92159
-51.1032 -44.6731 8.16746
-46.9538 -44.0395 10.0676
-43.7606 -43.3142 10.4308
-42.3622 -40.0304 11.5559
-43.8107 -39.8041 13.1136
-43.3086 -41.7907 11.1368
-43.7109 -43.3843 10.565
-47.4191 -44.4943 9.56154
-43.0484 -42.9559 10.0693
-45.2701 -43.8988 9.32153
-44.9009 -43.8636 10.5301
-43.1441 -38.7978 12.7297
-44.296 -43.8275 10.0811
-47.0064 -44.2954 9.5415
-42.8249 -40.6799 12.0036
-43.253 -41.6876 11.6713
-50.8448 -44.9557 9.63978
-43.3258 -39.8962 12.5722
-43.2237 -39.9217 11.6385
-50.8356 -44.0075 7.2717
-45.8811 -43.4329 10.1092
-42.9306 -40.4057 11.5097
-45.6773 -43.6599 8.47576
-44.0084 -43.2186 10.3908
-45.0694 -43.3188 11.3283
-48.3997 -44.7839 8.69538
-43.0952 -42.3388 11.5796
-43.0462 -40.5047 12.1954
-50.5078 -44.3903 7.94914
-52.8778 -44.4396 7.74109
-43.8774 -43.1238 10.4998
-44.5343 -39.7501 13.7118
-48.0607 -39.9697 16.0044
-47.1784 -44.1932 9.40439
-46.5834 -44.517 10.3055
-44.0887 -43.0772 10.9518
-52.9375 -44.7694 7.9705
-44.7179 -39.4075 13.6337
-43.0484 -41.5753 11.5826
-44.3436 -43.5529 10.6115
-49.338 -44.6584 8.4199
-43.7361 -39.0477 12.8077
-52.3587 -44.3739 7.3753
-47.172 -44.4735 9.38606
-46.4701 -44.2548 8.52178
-44.9978 -39.5053 13.6923
-43.4387 -43.2361 10.0318
-43.9563 -39.5326 13.126
-43.3384 -39.5075 12.8095
-43.4023 -42.8629 10.3992
-48.0618 -44.8805 9.8397
-42.6914 -40.6569 12.0474
-50.9142 -43.8103 7.24054
-47.7345 -44.3798 10.1445
-44.1575 -42.9597 10.6877
-44.2802 -44.4063 10.0566
-47.066 -44.2959 8.71173
-52.0129 -38.6061 17.9998
-43.7317 -42.5488 11.0018
-42.8835 -40.7319 11.5828
-45.5799 -39.6649 14.1329
-42.8707 -41.0669 11.7228
-48.6237 -44.2545 9.23486
-43.1921 -41.4888 11.4694
-43.1937 -42.0796 11.081
-46.1584 -44.2425 10.3442
-43.0561 -39.5618 12.5208
-44.5887 -39.325 13.8001
-44.1921 -42.9216 10.7458
-49.9681 -44.6776 8.64742
-46.999 -44.8588 10.0836
-48.1646 -44.8072 8.9332
-45.2499 -43.7626 10.4958
-43.0074 -40.5782 11.5685
-52.0624 -44.1711 7.36016
-44.0575 -39.5286 13.0365
-43.1252 -40.0967 12.1957
-46.952 -39.7109 15.1774
-43.8729 -39.7664 12.7708
-44.7224 -39.202 13.9043
-42.568 -40.1398 11.8834
-45.0378 -43.9054 10.364
-43.3363 -39.5725 12.4534
-51.5013 -44.9205 8.25611
-52.4711 -44.9605 7.77666
-44.9452 -38.7793 14.2186
-44.7908 -39.3069 13.6606
-42.608 -41.1272 11.4636
-44.3275 -43.1846 10.8827
-42.2365 -40.9175 11.3669
-43.0213 -39.6422 12.6685
-44.5509 -40.0615 13.4569
-44.6014 -43.5982 9.83742
-45.518 -44.047 10.4775
-43.3028 -43.5452 9.57019
-43.541 -39.4692 12.9913
-42.472 -39.4824 11.9072
-46.1789 -39.8265 14.47
-46.7949 -44.8567 9.93108
-43.9005 -42.557 10.7155
-49.6025 -44.7673 8.77072
-43.0804 -41.9785 10.8812
-48.3973 -44.5881 8.71214
-56.5576 -44.0859 6.30796
-50.1961 -39.0147 17.522
-46.3166 -39.3418 14.6837
-42.4537 -40.4361 11.912
-49.5765 -44.5153 8.43529
-43.3064 -42.8208 10.8951
-48.802 -44.8383 10.0237
-44.5412 -39.0289 13.4921
-47.3281 -44.2595 10.2404
-50.0947 -44.2816 8.60919
-43.3242 -41.4204 11.5646
-44.6058 -43.6073 10.4722
-50.4786 -44.6431 9.18367
-43.3407 -40.0688 12.5721
-45.2001 -43.8433 10.2504
-44.8171 -38.9596 14.2015
-45.0409 -43.853 10.3196
-48.3112 -39.4808 16.1776
-45.0686 -38.9958 14.3496
-43.6792 -39.2158 12.9935
-45.0656 -43.5649 10.343
-44.2764 -43.8665 9.92408
-44.8352 -43.8967 10.6881
-48.8124 -43.824 7.87634
-42.807 -41.5451 11.0491
-42.9902 -39.1297 12.717
-45.7431 -43.7882 10.1255
-45.4342 -43.9652 9.75822
-44.8871 -43.6992 10.0914
-45 -43.7339 10.5503
-46.8009 -44.3086 9.51363
-44.7617 -43.4721 10.77
-49.1479 -35.4342 26.6489
-44.6319 -43.7431 10.4555
-47.0908 -39.5847 15.6325
-52.8923 -44.1683 7.71464
-44.8934 -44.118 9.44898
-47.7021 -39.7126 16.0412
-42.9925 -41.4041 11.4448
-51.1765 -45.0095 9.52577
-45.3685 -39.1681 14.319
-42.8791 -41.4423 11.0671
-43.5836 -40.0931 12.6518
-45.133 -44.4253 9.45789
-43.0583 -40.4688 12.2572
-50.1368 -44.9243 9.50213
-49.6645 -39.0597 17.2224
-45.5776 -43.8135 10.4047
-43.6008 -39.4621 13.1405
-46.7191 -39.7182 15.2103
-43.5959 -38.971 13.2794
-42.7149 -39.5709 12.0164
-47.1244 -44.7429 9.01745
-47.4965 -39.8699 15.3554
-44.934 -43.7496 9.73476
-52.8954 -38.6235 18.6941
-45.8383 -39.2002 14.6604
[...]
POINT_DATA 10000
SCALARS t float 1
LOOKUP_TABLE default
219.481
213.798
210.883
214.686
211.998
214.6
212.827
211.657
211.583
210.917
213.237
211.383
214.576
213.563
214.256
211.374
215.731
214.502
211.781
212.718
227.203
214.56
214.011
220.053
211.125
217.519
220.834
214.586
211.314
213.955
226.642
211.693
213.461
211.72
211.25
214.103
211.088
212.885
212.432
214.243
222.199
218.858
213.509
212.203
211.741
210.962
210.807
210.965
212.42
225.97
213.678
211.213
210.806
218.202
213.33
215.079
214.52
221.205
212.198
211.793
211.182
210.749
215.974
210.496
211.704
216.441
214.621
210.337
213.546
214.697
214.246
216.633
214.044
215.208
214.616
226.772
212.146
225.331
212.857
228.763
219.269
229.429
210.58
213.806
211.871
214.292
210.466
209.947
219.947
214.44
218.986
211.506
213.418
212.998
213.612
210.278
225.333
221.354
211.779
223.839
213.721
212.362
217.104
213.488
216.9
213.223
214.183
211.601
212.498
214.162
210.042
213.043
213.607
213.86
210.832
210.616
220.084
210.091
212.926
210.423
214.229
214.651
210.643
212.847
211.131
221.661
211.577
214.544
211.739
211.077
210.215
227.053
212.302
212.577
210.862
219.704
209.923
211.867
212.972
213.708
210.855
230.643
214.17
214.04
209.93
214.579
214.357
220.253
219.065
217.699
213.976
227.3
236.618
214.558
211.941
210.591
222.781
210.574
210.031
211.609
211.79
212.261
223.469
213.179
214.367
214.694
213.203
219.202
211.637
220.979
210.281
211.87
214.573
213.722
210.467
213.11
215.553
209.842
209.995
212.816
210.218
210.554
212.001
214.945
210.359
213.065
210.164
212.603
214.105
210.062
210.105
211.473
210.637
213.55
214.591
210.336
236.133
214.452
213.802
211.21
212.509
213.654
218.41
225.984
213.622
211.754
214.505
211.003
211.485
214.413
222.449
226.7
211.661
211.191
215.222
218.266
210.519
210.204
211.969
220.499
213.061
211.647
216.185
211.171
210.738
212.614
223.88
212.14
210.87
211.599
214.146
210.476
210.475
214.716
211.889
216.403
210.874
213.775
211.875
214.833
212.314
211.394
214.728
213.549
211.619
231.547
212.087
211.371
222.54
211.054
211.188
220.25
211.172
212.771
225.81
227.071
210.742
214.464
214.596
215.63
211.602
210.097
225.068
214.224
211.26
210.526
222.192
213.726
230.147
215.727
221.827
214.207
211.982
214.065
213.892
210.969
213.255
212.447
231.965
212.084
210.345
211.88
220.325
213.286
210.161
211.407
214.451
211.553
216.599
211.089
210.302
211.501
213.489
214.382
210.21
220.513
212.061
218.594
211.069
211.407
230.498
213.949
212.778
214.617
213.761
214.391
212.129
211.297
213.287
223.046
226.524
214.477
214.185
211.154
210.03
211.071
213.799
214.331
213.184
211.137
214.877
214.028
212.333
214.592
212.594
210.263
219.659
209.935
220.167
238.066
213.605
214.567
212.171
222.102
209.796
212.525
214.058
211.851
220.886
211.251
210.955
216.952
213.559
211.605
214.558
211.41
214.391
214.608
213.952
211.401
212.581
210.478
226.848
210.35
213.841
211.978
213.65
211.957
210.878
215.001
210.316
217.485
210.986
214.584
227.454
215.575
214.505
211.061
215.279
214.525
210.415
213.678
215.447
212.918
215.281
213.724
211.345
214.169
214.659
214.214
212.499
218.074
214.613
213.823
212.999
214.658
213.123
211.986
210.708
210.977
214.042
212.821
210.519
213.94
211.29
212.686
214.532
213.198
212.986
211.879
212.926
211.44
222.096
210.706
231.075
213.995
218.953
228.541
210.643
213.865
210.857
211.638
227.037
213.894
210.641
211.567
210.13
211.482
214.031
211.378
215.196
210.568
214.454
214.62
226.072
211.965
216.689
211.292
219.767
212.16
211.367
219.322
209.995
210.298
210.961
214.744
212.16
217.912
212.042
211.392
214.155
210.37
220.889
210.378
211.034
211.184
211.414
213.051
217.303
210.329
211.421
210.016
213.945
211.513
224.853
211.214
210.681
213.217
214.078
212.063
223.923
222.092
213.887
219.533
223.424
219.363
210.469
211.099
214.467
214.511
214.336
211.848
210.166
210.495
210.19
216.998
209.879
210.714
211.769
225.588
212.265
210.824
214.346
211.025
211.518
225.007
223.955
210.93
214.219
210.925
222.234
210.947
213.055
214.598
230.192
214.153
212.585
219.362
212.289
218.08
227.163
214.006
209.892
212.479
213.618
211.473
210.732
212.517
213.773
214.646
211.771
236.149
211.056
217.631
221.355
218.403
210.745
209.986
214.382
212.602
212.294
211.828
217.506
214.697
219.049
213.788
214.338
212.591
227.113
210.942
214.234
212.322
211.355
229.504
214.198
213.753
236.482
216.725
216.9
222.335
227.245
211.243
211.63
213.36
212.387
212.964
211.038
210.175
212.368
209.85
221.508
217.814
223.262
213.04
226.714
214.82
214.431
217.202
212.94
213.046
211.809
213.05
210.608
212.446
213.472
214.455
210.573
216.295
214.678
211.211
211.023
220.141
210.725
210.393
212.525
214.211
214.198
210.897
210.169
213.558
218.123
214.197
211.811
212.522
213.061
218.739
233.332
209.828
214.416
215.045
214.665
214.413
210.829
214.363
211.782
210.425
211.252
226.29
232.937
213.222
226.443
211.08
209.999
211.068
210.473
212.882
209.882
216.087
212.163
211.09
213.274
214.5
212.308
211.77
210.574
212.843
213.057
215.084
211.382
210.842
211.393
214.256
210.572
211.475
211.724
214.063
210.542
211.917
226.518
227.519
226.272
211.27
210.519
211.961
214.428
216.158
210.085
221.241
214.119
211.113
213.721
210.814
210.295
213.764
213.073
210.298
211.903
212.851
212.681
214.763
211.911
212.709
221.895
210.596
219.231
212.003
213.759
222.902
211.647
216.957
214.609
211.737
231.549
210.011
211.117
211.661
215.603
210.271
214.58
213.748
211.628
213.816
210.061
211.592
214.554
212.763
214.601
212.589
212.414
212.239
213.26
214.583
219.904
212.324
210.789
219.064
213.235
214.504
224.612
219.029
213.063
211.307
213.768
230.627
211.066
210.69
211.018
211.582
234.51
211.172
212.163
213.074
212.735
210.816
212.687
221.656
211.439
214.125
213.043
226.792
227.437
212.898
216.083
214.382
223.747
214.91
214.009
210.392
214.451
211.775
212.004
211.47
213.876
213.012
210.078
213.279
221.598
212.471
212.498
211.915
210.363
210.461
213.795
213.138
220.268
209.99
211.062
215.539
213.015
210.298
215.281
224.348
223.596
216.535
211.338
211.065
210.223
211.215
213.968
213.025
211.247
214.745
213.747
211.38
213.158
217.949
211.145
215.26
210.641
210.358
221.593
220.472
223.431
210.116
227.488
224.604
212.307
212.494
210.429
212.303
211.803
210.895
212.86
212.926
211.804
213.252
220.257
215.445
210.772
210.245
230.961
210.571
210.391
210.939
210.369
221.893
216.737
211.827
211.049
211.01
211.561
210.777
221.938
210.14
210.665
221.017
211.324
212.406
219.574
211.697
212.303
218.673
211.142
212.819
214.366
210.859
210.124
213.264
210.581
211.086
211.927
213.912
212.623
213.682
214.545
221.542
228.489
221.03
223.263
224.392
225.971
212.703
230.241
214.676
215.67
216.238
213.999
212.114
209.928
212.497
232.343
212.258
209.922
214.164
219.529
215.799
211.724
211.64
211.523
214.032
228.967
211.312
221.68
212.421
211.016
210.516
213.599
227.168
210.439
213.083
211.271
212.018
217.703
212.04
211.508
212.484
210.728
214.319
210.176
210.274
224.107
220.63
212.892
213.409
210.123
214.269
210.364
210.638
211.442
225.88
210.729
213.43
212.609
212.788
212.315
212.043
211.25
214.102
213.32
218.088
214.616
222.383
220.556
210.622
211.375
213.745
214.264
211.553
211.499
211.411
232.462
213.704
213.04
211.504
211.941
215.056
212.908
211.37
219.317
211.047
210.896
210.809
213.069
212.376
211.467
211.443
214.193
209.824
213.095
212.008
213.214
211.96
212.149
210.251
212.58
214.057
214.051
213.195
214.572
210.995
210.988
213.168
236.924
215.257
211.567
210.568
210.649
211.703
214.396
214.146
210.838
212.106
214.432
220.85
212.843
234.262
214.427
212.345
212.073
223.531
214.707
225.727
213.643
211.106
211.376
211.091
211.723
212.663
210.1
209.995
213.278
210.263
212.402
210.795
223.218
228.468
211.389
230.502
213.602
213.245
215.624
210.975
212.801
210.304
222.77
215.515
211.416
213.678
212.745
212.437
215.22
213.548
238.353
211.995
210.82
215.547
211.127
214.023
217.089
214.469
214.137
214.289
213.021
214.058
213.803
213.083
210.633
210.956
216.156
214.075
214.355
214.101
211.784
222.244
212.209
210.42
212.14
211.035
213.803
210.883
214.403
214.565
210.911
214.072
231.994
210.268
210.444
215.252
213.828
214.817
211.94
210.56
223.146
227.517
219.314
211.918
212.959
213.571
212.662
216.877
211.614
211.916
214.569
210.022
219.615
212.959
210.313
213.417
214.605
211.111
228.09
213.16
210.268
210.155
216.595
220.865
214.692
212.848
214.084
229.691
209.986
241.041
227.517
220.409
211.725
219.436
212.901
210.837
219.659
211.616
213.944
211.607
211.047
211.37
215.019
215.991
213.918
211.32
224.025
210.196
210.322
210.4
222.148
210.134
212.177
209.785
212.628
211.698
212.809
210.519
216.171
211.505
217.82
213.439
214.603
212.404
227.258
213.048
221.69
212.033
211.056
209.91
212.63
212.079
219.465
211.591
211.135
210.015
213.424
210.442
223.647
217.675
210.978
220.514
228.374
214.06
221.967
215.775
214.184
212.941
210.759
212.189
222.206
214.541
225.673
213.985
218.339
233.877
211.089
241.016
213.979
210.793
215.457
221.131
210.777
211.845
215.525
211.697
242.385
213.944
212.434
210.164
213.02
212.275
217.316
210.908
219.056
213.099
211.651
214.35
211.467
212.528
214.014
214.359
213.415
227.062
237.177
211.554
210.389
210.728
215.472
214.184
210.967
212.863
232.026
210.31
214.204
211.56
210.044
213.589
210.037
214.228
213.028
214.185
210.791
213.721
216.281
210.739
212.931
212.593
235.731
221.222
211.678
215.667
222.146
211.375
217.949
214.794
214.139
214.652
215.09
210.735
220.796
217.238
217.34
216.635
215.245
209.962
217.424
222.507
217.641
214.071
213.814
213.827
213.327
210.809
213.714
212.141
223.125
210.475
212.219
210.044
235.722
213.296
214.599
212.647
216.282
212.119
231.469
211.968
210.272
212.917
210.654
210.02
221.249
214.385
213.707
212.739
214.061
211.644
212.234
233.025
210.619
214.566
227.296
213.144
210.36
214.389
213.681
209.778
211.723
214.382
224.498
214.885
214.411
212.333
214.354
211.839
231.581
225.675
209.939
214.309
210.65
213.677
225.549
214.484
211.741
210.606
229.277
213.524
213.988
216.995
220.46
210.899
229.549
211.212
210.838
210.573
219.198
210.115
215.597
213.57
210.787
214.541
213.688
213.974
214.426
212.756
213.821
214.6
214.561
212.483
222.036
213.568
211.208
210.036
214.182
209.956
211.043
213.2
213.388
230.682
210.145
213.532
212.519
211.452
230.54
214.377
210.082
211.563
214.636
211.05
212.856
211.899
214.809
210.661
212.541
210.929
212.43
220.16
216.35
214.525
212.202
216.649
217.382
213.872
226.402
214.42
214.147
213.7
211.56
211.7
211.722
216.457
210.434
210.795
213.146
217.987
212.518
232.033
212.895
213.818
219.012
214.076
210.983
211.548
212.773
213.161
213.069
215.522
211.079
211.301
214.475
210.26
222.092
218.9
231.694
215.678
210.35
212.341
211.059
213.728
210.735
210.72
213.517
218.414
213.634
222.002
212.552
210.232
211.097
211.042
210.38
212.98
211.39
211.843
210.277
213.115
214.195
211.196
214.729
210.253
212.941
211.659
214.159
209.832
212.796
210.45
211.659
210.806
212.127
216.351
211.54
212.411
221.616
211.596
211.792
214.193
221.455
210.864
210.908
212.725
214.467
210.355
211.062
218.194
211.711
214.066
214.031
210.248
210.863
211.735
212.454
213.226
214.708
211.757
233.795
215.05
211.317
215.161
210.763
228.476
211.436
212.204
211.715
221.415
227.938
211.373
211.365
211.021
211.1
211.837
210.275
219.241
225.829
213.901
210.915
233.286
229.602
212.059
212.188
212.385
218.416
212.852
216.174
210.875
223.982
212.825
225.138
214.69
211.866
213.033
231.201
213.165
210.366
211.365
210.695
214.61
214.49
218.735
210.625
212.626
211.316
210.993
210.985
213.991
211.99
211.415
214.578
210.677
210.306
213.468
212.1
211.196
213.27
212.823
211.23
214.582
209.85
216.394
210.549
214.196
212.269
221.347
221.279
214.456
214.094
219.286
211.375
219.344
211.383
224.588
212
212.987
214.77
216.455
213.539
210.76
218.053
214.399
211.793
219.182
210.453
214.253
210.969
219.112
212.804
220.821
211.934
213.68
229.722
212.138
212.264
212.1
214.588
210.915
212.193
211.808
214.161
212.035
210.104
210.949
213.941
218.072
213.078
218.852
211.046
238.123
210.302
213.967
210.708
211.928
219.096
224.073
213.045
213.109
210.019
222.955
217.595
210.876
213.869
210.863
210.147
215.585
228.007
214.299
214.229
214.499
212.723
210.473
222.293
212.008
214.95
210.892
215.91
210.737
213.543
210.611
220.455
213.068
215.464
210.751
212.7
210.547
211.663
216.879
211.373
220.227
221.927
211.014
211.785
212.298
227.278
216.241
210.569
211.129
213.089
213.135
211.904
213.061
212.441
221.485
211.449
212.777
212.538
210.142
216.652
220.371
211.749
211.269
211.13
213.036
210.101
214.52
219.094
209.884
212.283
220.318
212.146
211.233
211.854
214.559
211.967
215.477
214.634
230.944
211.38
211.481
214.457
210.932
212.614
211.806
216.887
213.412
216.383
213.111
235.202
214.196
213.879
218.025
228.312
213.743
228.071
211.312
213.392
222.704
211.38
214.591
215.154
210.25
213.806
211.63
210.455
213.109
210.511
213.001
211.238
212.15
211.514
215.283
212.91
225.07
212.313
216.819
210.116
213.449
212.129
212.126
219.63
213.908
211.093
210.088
218.012
217.42
223.408
214.365
211.989
229.045
211.24
210.717
210.814
214.485
213.298
211.74
212.695
210.833
210.899
211.695
214.467
214.591
214.233
221.798
211.084
211.277
212.344
212.863
218.444
211.203
212.062
211.985
210.692
214.195
211.028
211.581
211.286
231.447
213.478
214.644
211.086
210.673
214.041
218.474
212.328
214.153
210.002
220.059
213.597
211.547
212.684
210.06
211.222
213.143
227.377
211.677
214.057
212.399
215.644
211.848
212.716
210.045
219.614
216.13
218.186
210.847
210.63
213.264
210.109
210.658
210.275
217.838
215.566
212.036
223.031
214.239
214.397
216.797
212.121
210.451
215.077
214.7
211.344
226.793
227.872
222.837
214.194
214.703
210.907
210.22
212.815
211.587
210.485
211.178
214.038
213.962
210.137
212.427
213.016
220.777
210.308
212.811
217.307
210.213
221.499
212.736
212.733
210.422
215.816
213.983
221.427
213.715
211.95
211.994
226.355
211.017
211.63
210.146
210.019
211.018
212.491
215.803
211.189
213.324
228.347
224.095
212.134
212.142
210.74
214.538
227.541
216.565
216.105
210.162
215.199
211.033
213.056
213.407
213.733
209.87
214.171
211.084
210.826
213.91
210.221
214.226
216.144
214.175
212.335
214.064
210.734
223.994
212.872
213.143
217.552
214.055
212.761
214.589
211.179
220.692
232.958
210.925
214.345
213.625
228.989
210.478
212.466
210.034
210.663
223.973
211.381
215.913
211.871
214.339
232.469
213.982
226.369
213.807
214.541
213.544
214.731
218.576
211.534
210.941
222.977
212.095
214.074
212.489
228.98
223.97
212.257
226.54
229.579
211.184
217.331
213.293
213.642
216.633
212.085
215.337
210.588
211.18
210.454
210.372
212.182
210.512
215.264
212.635
211.627
230.963
213.816
214.404
211.283
217.678
220.566
210.382
215.819
216.072
214.583
212.53
215.208
210.008
210.437
218.008
211.255
211.181
210.349
214.1
216.695
214.597
209.792
215.088
214.266
214.58
213.499
210.105
212.675
212.24
215.996
210.946
221.925
213.467
214.591
216.807
216.379
214.611
214.143
210.998
219.654
211.952
210.577
217.858
215.723
211.076
210.462
210.122
209.99
211.106
212.495
212.178
214.557
213.158
210.08
211.824
214.098
214.274
210.886
210.628
212.696
211.472
219.227
210.798
211.715
226.717
210.576
210.37
212.608
217.278
213.227
210.461
210.964
213.689
210.222
211.435
224.986
214.645
214.482
231.356
220.288
213.291
220.79
214.692
212.159
212.405
210.085
214.382
211.231
211.363
212.285
211.065
217.961
214.695
213.297
213.72
217.662
218.64
209.989
218.687
211.032
211.808
217.288
211.562
213.075
210.744
212.015
210.195
213.054
210.386
211.546
210.487
214.216
212.557
211.631
210.588
209.915
210.949
215.583
227.761
231.7
211.572
210.316
232.411
224.253
213.621
226.657
211.266
222.346
221.352
218.881
220.813
213.018
212.187
211.433
214.585
212.869
210.767
230.83
213.261
214.612
214.583
212.397
218.122
212.139
210.691
212.945
214.57
216.471
211.076
210.192
210.328
210.677
211.815
210.488
210.661
214.138
219.537
214.021
218.208
214.509
214.587
210.931
212.017
224.346
212.272
225.231
229.294
222.977
224.477
220.974
211.399
211.771
213.239
212.777
216.048
209.862
213.291
212.077
210.03
210.178
225.262
221.042
212.299
210.129
214.572
214.651
222.536
212.893
209.835
215.998
212.544
211.11
215.849
210.745
221.511
214.175
218.866
213.729
220.403
218.287
211.783
210.232
213.491
211.502
223.108
211.749
212.749
213.824
209.924
213.192
216.824
214.082
210.834
210.941
211.366
227.189
227.696
230.244
214.299
210.584
212.943
210.244
213.46
214.794
211.247
232.489
212.964
210.208
222.965
210.368
210.864
216.635
213.438
234.864
211.688
210.103
212.036
214.692
210.56
211.832
216.597
210.288
212.977
213.443
211.785
211.604
210.387
215.915
214.941
212.888
212.776
212.004
222.77
211.67
214.68
211.646
210.526
221.986
214.687
215.995
214.36
210.129
214.197
213.776
210.879
212.874
212.821
213.839
236.17
213.773
211.873
218.28
214.649
211.135
211.636
219.165
213.404
213.138
228.157
220.454
211.214
210.294
227.259
212.468
213.559
216.126
210.642
211.306
213.874
227.544
212.568
212.874
211.561
214.57
211.748
212.817
210.38
212.346
210.416
211.072
212.676
212.344
212.484
215.186
210.031
210.321
219.807
210.683
210.805
214.037
212.525
211.102
212.941
211.93
211.912
212.122
213.214
214.015
210.666
211.059
210.542
219.887
211.738
212.284
218.127
212.912
210.05
220.766
210.267
213.395
213.991
213.571
221.893
211.858
211.931
213.217
240.895
210.265
228.112
211.421
212.388
220.906
210.501
214.104
210.967
233.053
214.205
213.048
215.081
212.783
213.883
221.682
216.984
214.734
219.42
214.102
212.137
214.235
210.71
213.596
210.154
219.964
209.842
213.325
219.909
215.658
209.957
217.628
214.634
214.495
211.617
210.641
210.629
216.851
221.396
223.911
213.431
211.323
217.464
213.333
211.281
213.724
211.151
211.292
211.583
212.164
211.975
211.273
221.874
211.179
213.19
213.241
210.64
212.857
211.28
212.865
211.001
212.982
217.697
214.389
212.14
212.882
214.173
212.352
223.168
220.319
214.539
213.556
209.962
210.912
212.106
211.537
214.983
209.816
211.769
214.62
214.208
210.22
229.337
212.772
210.646
212.864
220.014
217.708
214.209
211.939
215.774
210.753
214.512
211.567
214.048
212.023
210.246
214.421
211.006
214.207
211.174
222.164
212.227
227.025
212.522
214.034
216.607
213.645
210.471
211.099
213.593
213.706
214.73
213.65
211.314
218.86
211.181
212.655
214.345
210.828
211.089
210.451
213.19
227.209
213.929
211.734
215.498
218.701
214.093
210.045
213.458
211.588
213.764
213.01
215.957
212.872
210.335
216.195
211.821
214.129
222.193
214.386
211.954
211.861
215.268
210.814
219.318
230.856
212.617
210.405
213.509
210.404
241.544
213.038
216.438
210.794
212.204
210.63
211.187
211.857
212.923
232.309
216.269
229.502
214.696
210.11
215.914
224.438
214.656
211.318
214.705
226.521
213.551
211.066
216.245
210.099
213.572
210.997
210.522
211.05
212.789
214.644
212.029
211.692
222.081
209.993
223.377
213.081
210.485
211.267
211.711
224.351
211.439
211.036
213.612
211.02
210.189
213.895
214.447
212.611
214.222
214.653
211.855
211.73
213.253
212.565
211.473
221.004
220.032
213.46
211.146
214.157
218.228
213.562
211.317
215.267
217.953
212.811
216.738
212.135
211.747
232.771
218.829
213.303
214.222
213.818
223.727
218.2
212.101
220.809
214.608
210.571
232.093
214.115
210.935
210.929
222.781
210.16
220.713
211.191
210.942
214.571
220.469
212.243
213.905
214.415
211.345
214.561
212.718
211.152
215.507
219.198
214.42
221.209
214.366
211.183
211.056
214.043
212.701
210.508
210.515
213.787
217.776
210.498
211.959
218.956
214.201
211.833
211.464
214.605
210.624
211.282
211.804
213.6
212.766
214.432
210.245
212.427
211.19
217.466
217.819
213.839
214.552
214.676
210.306
212.411
212.907
211.401
212.083
214.22
211.998
211.431
210.949
211.25
213.497
210.559
211.598
213.42
210.516
218.726
213.051
214.269
211.567
213.942
211.715
220.41
216.847
212.18
211.208
219.455
212.605
217.428
213.44
212.211
211.096
212.011
214.391
213.521
214.856
211.778
212.307
210.458
211.338
215.385
214.514
210.461
213.837
220.466
212.82
210.283
212.062
220.241
210.145
212.025
211.278
215.479
211.041
211.245
210.487
210.188
212.914
216.088
224.057
211.957
211.446
211.373
212.824
211.672
211.207
226.081
222.128
219.566
219.418
209.962
225.249
213.536
210.807
221.454
228.801
209.926
213.485
212.938
209.991