# vtk DataFile Version 3.0
vtk output
ASCII
DATASET POLYDATA
POINTS 10000 float
-47.3648 -44.3226 8.83068
-43.5202 -39.5975 12.6648
-43.0697 -42.0711 11.0804
-46.2567 -39.2903 14.9304
-42.8765 -40.6421 11.8421
-45.6782 -39.2874 14.296
-44.8731 -43.8844 10.0855
-43.3497 -40.9518 11.9191
-43.2703 -40.429 11.6427
-44.7192 -43.7688 10.4387
-46.2832 -44.1898 9.70917
-44.6437 -43.7631 10.4749
-45.8593 -39.5506 14.3681
-43.0768 -39.1848 12.4973
-44.1445 -39.2062 13.6762
-42.7506 -40.3816 11.8644
-48.1201 -44.5972 9.27667
-44.9346 -39.1908 14.0942
-42.7091 -40.2032 11.8136
-43.1654 -39.4675 12.2188
-53.0105 -44.3338 7.62822
-45.6034 -39.4856 14.3132
-43.9159 -39.4586 12.8819
-47.7628 -44.5299 8.85216
-44.8469 -43.8718 10.4388
-46.2879 -44.1841 8.91311
-50.0932 -44.8379 8.46318
-47.0272 -39.6447 15.4445
-45.0157 -43.6497 10.1717
-43.3401 -39.6067 12.9185
-50.2579 -44.415 7.89524
-42.7069 -40.5039 11.6825
-46.11 -44.0797 9.97296
-45.0246 -43.9123 10.2014
-42.34 -39.5375 11.461
-43.8377 -39.5583 12.9849
-44.0545 -43.4078 10.4558
-43.3201 -40.3964 12.5493
-42.717 -40.6641 11.9112
-44.0763 -40.2098 13.01
-51.9284 -44.9768 8.36289
-47.9194 -44.2573 8.7975
-43.1901 -40.4368 12.1607
-43.7787 -41.4153 11.9922
-42.7925 -41.2813 11.5492
-42.7666 -41.713 11.2786
-43.1101 -41.6896 11.3601
-43.1817 -41.5877 11.3474
-42.6401 -39.1098 12.1254
-49.1352 -44.5349 8.00765
-43.1611 -39.4679 12.7999
-45.5724 -44.0333 10.6825
-44.9059 -43.6843 10.507
-46.8466 -44.5431 9.04074
-43.6724 -39.506 13.0873
-49.688 -44.8442 9.66326
-44.4834 -39.1056 13.7646
-46.1809 -44.0732 8.66275
-46.796 -44.4976 10.2294
-42.7505 -40.167 11.8021
-44.1488 -43.5679 10.5017
-45.5508 -43.8405 10.5968
-44.2169 -43.4233 9.31222
-43.2082 -42.0916 11.1423
-45.4313 -43.8973 10.5458
-45.2333 -44.1008 9.56465
-47.3989 -39.6339 15.6584
-43.5525 -42.4794 11.1032
-51.2043 -38.7897 17.8778
-46.4808 -39.6739 14.6722
-44.4002 -39.6236 13.5786
-48.7593 -44.6549 9.25065
-43.7767 -39.8884 13.0812
-49.3845 -44.8446 9.51512
-46.4893 -39.4766 14.7309
-50.7633 -44.9246 7.79222
-42.6359 -40.18 11.9662
-47.8076 -43.4831 7.87539
-43.3633 -40.3921 12.1744
-53.2133 -44.2194 7.35501
-49.1084 -44.6887 8.75592
-50.5981 -44.2849 7.46689
-44.1809 -43.4004 10.6151
-43.8308 -39.9084 13.0826
-42.7062 -40.0679 11.6936
-44.5564 -38.9694 13.8163
-44.3659 -43.6547 10.5423
-43.0105 -41.6576 11.221
-51.4928 -44.6906 8.77324
-45.2475 -39.4888 14.0186
-46.0494 -43.677 8.76905
-45.8286 -43.9661 10.3826
-42.9716 -39.9458 12.3508
-53.8902 -38.6242 19.198
-47.5439 -44.5654 9.86421
-42.9222 -42.2127 10.7147
-48.9547 -44.3936 8.02001
-52.9827 -44.902 8.48017
-42.6079 -39.9763 11.3775
-47.4586 -44.3044 8.37116
-45.1569 -44.3525 9.91973
-45.8288 -44.4432 9.78048
-47.0381 -44.4633 8.93946
-43.1225 -40.2597 12.0539
-49.5958 -45.278 9.21725
-48.5744 -44.9591 9.47514
-44.0589 -39.6059 13.3999
-42.9247 -40.8437 11.6997
-43.9957 -40.7676 12.3241
-43.3398 -39.3062 12.9158
-44.051 -43.4637 10.5924
-43.2036 -39.7826 12.2526
-42.8122 -38.8594 12.5871
-43.6989 -40.4761 12.437
-44.3323 -43.4011 10.7895
-42.7585 -41.2246 11.5639
-47.7764 -44.6948 8.68394
-42.9387 -42.2424 10.9664
-43.5328 -43.5244 9.68252
-42.7544 -41.8402 10.7231
-44.2093 -38.7617 13.6733
-48.1468 -39.9317 15.6936
-43.0881 -41.8447 11.1569
-43.2882 -39.977 12.1848
-43.8988 -43.2942 10.4858
-52.8446 -44.749 8.42315
-42.879 -40.8858 11.7762
-45.3967 -39.482 14.0663
-45.026 -43.3794 10.1688
-44.668 -43.3373 10.6242
-42.6173 -41.381 11.0694
-52.9942 -45.0246 7.83434
-46.655 -44.1192 9.84036
-43.0995 -40.6494 12.0303
-43.0792 -41.1619 11.3957
-49.8578 -44.9684 8.86831
-43.5299 -42.8844 10.8933
-42.977 -40.2743 11.7989
-42.8748 -39.8352 12.0988
-44.4769 -43.7314 9.97989
-43.0674 -42.0306 11.3162
-55.0528 -44.019 7.43235
-44.0037 -39.4755 13.1807
-48.3416 -39.3864 16.9027
-43.6842 -42.5607 10.8584
-46.1243 -39.5093 14.524
-45.0849 -43.8507 9.71568
-49.5559 -45.0772 8.56066
-45.1924 -43.9259 8.84676
-46.8426 -44.6453 9.07935
-43.578 -39.4607 12.8625
-52.2691 -44.3983 7.55464
-53.9288 -43.7298 6.62108
-47.1488 -39.5734 15.3966
-42.6796 -39.5124 11.9006
-42.6803 -41.1547 11.1464
-46.2829 -43.5579 8.38447
-43.1626 -42.0199 11.0698
-43.4945 -42.2288 11.1342
-42.8176 -39.5059 11.9374
-44.4509 -43.5404 9.84917
-43.2267 -40.9103 12.1899
-50.0896 -44.4952 8.17963
-44.2307 -40.5052 12.4947
-45.3909 -39.5539 14.0579
-46.8099 -39.8304 15.1227
-45.4162 -43.9707 9.89659
-46.3002 -44.5327 8.99481
-43.9111 -42.4049 11.617
-51.2786 -44.8253 8.71428
-42.7706 -41.6195 10.6998
-45.4383 -44.7605 10.0494
-47.477 -39.8058 15.7842
-48.8502 -39.5681 16.8455
-43.6025 -42.5855 11.2365
-43.7207 -40.6933 12.2802
-43.83 -43.6922 9.75898
-43.4439 -42.4245 10.8949
-42.8648 -42.5927 10.5038
-46.2019 -44.2992 10.0181
-43.0352 -42.0774 11.1885
-42.7033 -41.8374 10.5538
-45.5107 -44.1368 9.99605
-45.0088 -43.8309 9.52853
-43.7169 -42.5309 10.9422
-43.1949 -39.904 12.2899
-44.0108 -43.2019 10.6296
-42.8055 -39.7054 11.9821
-43.466 -39.0658 13.1494
-43.9396 -42.6903 10.8072
-42.2581 -41.7035 10.7574
-43.0369 -40.9589 11.6126
-43.6507 -42.2206 11.2056
-42.894 -39.5421 12.3049
-48.1784 -39.7031 16.2772
-43.8358 -42.2262 11.2394
-55.8659 -44.3972 6.69212
-45.4147 -39.3784 14.1279
-43.6553 -40.5212 12.3668
-44.49 -43.385 10.7072
-45.3761 -44.13 9.91607
-43.2643 -40.5116 12.5706
-48.2936 -44.5657 8.8214
-49.9827 -44.611 7.66795
-43.1605 -39.0185 12.3742
-42.4398 -40.0386 11.7991
-44.6809 -43.9448 9.63856
-44.4712 -43.4168 10.3734
-45.1098 -43.7579 10.1872
-48.6684 -39.5946 16.3241
-45.7849 -43.4584 8.39612
-53.1736 -44.5877 7.66928
-43.8396 -43.38 9.97618
-44.1128 -43.6498 10.1847
-44.8911 -44.4934 9.45161
-51.9914 -44.8165 8.99841
-42.4939 -41.8576 10.4767
-43.3266 -42.1442 10.9111
-43.6634 -42.0122 11.8537
-51.7454 -45.0522 8.64698
-42.9973 -39.9044 12.1621
-42.2405 -39.4869 11.7661
-49.2402 -44.9838 9.34126
-42.9182 -41.7764 11.4976
-42.8059 -41.4228 11.3303
-44.5282 -43.7866 9.8383
-49.351 -44.5527 7.98433
-46.6058 -44.3136 10.1134
-44.023 -43.1926 10.4951
-42.6236 -41.1345 11.3203
-43.8167 -39.3284 13.1038
-42.9773 -41.9658 11.0992
-44.2025 -43.3686 10.8406
-48.7236 -45.1146 9.5025
-44.0782 -43.7106 10.225
-47.8912 -44.6806 9.21615
-45.1656 -43.8096 10.5988
-43.4505 -40.2288 12.8398
-44.1371 -43.8053 10.1348
-48.19 -44.7146 9.7287
-43.355 -41.2263 11.7833
-42.9669 -41.3761 11.5723
-50.7288 -44.6512 9.493
-43.3734 -39.2925 12.6042
-42.7666 -41.2193 11.5373
-50.4233 -44.4977 7.38795
-46.2028 -44.129 9.96443
-42.9875 -41.2395 11.4622
-45.7485 -43.4682 8.50073
-44.204 -43.4836 10.3466
-44.7477 -43.213 11.3167
-47.1407 -44.6936 8.65398
-44.1555 -42.7044 11.5064
-43.6051 -40.6007 11.8762
-50.9912 -44.9754 8.09372
-50.7535 -44.054 7.7425
-43.6384 -42.8502 10.4085
-44.323 -39.3594 13.6934
-47.9596 -39.8441 16.017
-47.3641 -44.9202 9.4887
-46.6379 -44.6738 10.0886
-44.4086 -43.0536 10.6393
-52.891 -44.5042 7.87993
-44.8391 -39.4201 13.8709
-43.427 -40.6792 11.3774
-44.5339 -43.545 10.6852
-49.8259 -44.6233 8.39432
-43.6856 -39.6649 12.5564
-54.5476 -44.905 7.44359
-45.9812 -44.193 9.45996
-46.2192 -43.7149 8.69408
-44.7534 -39.0945 13.6063
-43.4684 -43.2271 10.1941
-43.9692 -39.2121 13.121
-43.9597 -39.7658 12.9382
-43.0337 -42.7751 10.5233
-48.9379 -44.9629 9.6756
-42.9 -39.9891 11.9939
-53.5758 -44.2932 7.30016
-46.4325 -44.3692 10.29
-43.6975 -42.9434 10.7958
-44.8141 -43.8731 9.80427
-47.4367 -44.7945 8.5713
-52.1316 -38.6331 18.3778
-44.0779 -42.7011 10.7587
-42.6076 -41.1323 11.4762
-45.6412 -39.0337 14.1293
-42.5317 -39.6887 11.7959
-48.5655 -44.5397 9.26461
-42.8226 -40.5144 11.4471
-43.2822 -42.3973 10.9476
-45.4001 -43.6959 10.1644
-42.8656 -39.7235 12.0179
-44.6145 -38.8422 14.0568
-43.6168 -42.7357 10.7683
-50.9177 -44.8016 8.53198
-46.6145 -44.2966 10.1673
-48.2474 -44.6739 8.73359
-44.3699 -43.4303 10.3357
-42.8117 -40.5434 11.6344
-51.9019 -44.1999 7.37453
-43.8798 -38.9527 13.0858
-42.931 -39.8229 12.2238
-46.7404 -39.6113 15.0722
-43.876 -39.8929 12.784
-44.9118 -38.9569 14.0643
-42.1567 -38.7699 11.5547
-45.5955 -44.2581 10.3075
-43.3886 -39.9295 12.4295
-53.1268 -45.4443 8.41828
-51.2646 -44.4507 7.69505
-45.0462 -39.0469 14.2803
-44.7156 -39.7056 13.7054
-43.4278 -41.7502 11.5192
-44.8453 -43.1033 11.0125
-43.2099 -40.7535 11.6478
-42.7254 -39.1727 12.3535
-43.8852 -38.3474 13.2432
-44.1752 -43.5649 9.68276
-45.9368 -43.8748 10.3183
-43.8169 -43.3912 9.80292
-43.3659 -39.511 12.7781
-42.7831 -40.2384 12.0299
-45.8354 -39.4342 14.2725
-46.6267 -44.1853 10.0047
-45.0508 -43.4773 10.8615
-51.2722 -44.8407 8.60786
-42.9007 -42.0932 10.9881
-48.1959 -44.4207 8.76005
-54.7426 -42.9953 6.0538
-49.7838 -39.033 17.3982
-46.3862 -39.5614 14.7133
-42.8289 -40.8635 11.8895
-47.3586 -44.2133 8.72158
-43.9039 -43.0149 10.9047
-48.7681 -44.9358 9.66908
-44.4686 -39.211 13.5526
-46.4979 -44.1394 10.4397
-54.2237 -45.1258 8.68002
-43.4708 -41.5004 11.9454
-45.1179 -43.7047 10.5639
-47.8766 -44.8783 9.45926
-43.5729 -39.1207 12.8527
-44.539 -43.5537 10.3752
-44.3323 -38.9745 13.7634
-46.1394 -44.7871 10.0266
-48.5852 -39.6984 16.148
-45.2118 -39.2453 14.2796
-43.6525 -38.7627 13.2384
-44.4587 -43.6698 10.3927
-44.6981 -43.7991 9.92145
-45.083 -43.4141 10.6567
-50.9183 -44.3221 7.85194
-43.1952 -41.2597 11.6486
-43.2097 -39.2359 12.7203
-45.4102 -43.7898 10.2365
-45.4789 -43.966 9.91721
-46.666 -44.3559 10.0757
-45.1291 -43.8267 10.4592
-47.6554 -44.5052 9.53187
-43.6444 -42.9974 10.5567
-49.0072 -35.382 26.7801
-43.813 -43.0427 10.5181
-46.9885 -39.498 15.853
-54.4184 -45.0385 7.63609
-46.5518 -44.314 9.4184
-47.467 -39.842 15.8467
-43.0929 -41.7577 11.6412
-47.5191 -44.3138 9.6018
-45.3231 -39.3859 14.4304
-42.4464 -41.0495 10.849
-43.4975 -40.3358 12.7323
-45.5265 -44.0335 9.49758
-43.0614 -40.5767 12.0101
-51.5754 -44.6139 9.37926
-50.0952 -39.0049 17.5952
-45.5026 -43.8648 10.3184
-43.8161 -39.3405 13.1437
-46.7029 -39.5523 15.1581
-43.2239 -38.2543 12.9704
-42.7199 -39.6043 12.0546
-48.2952 -44.3983 9.11193
-47.423 -39.8538 15.302
-45.4408 -44.2295 9.74554
-52.1865 -38.5109 18.3797
[...]
POINT_DATA 10000
SCALARS t float 1
LOOKUP_TABLE default
219.423
213.658
210.288
214.65
211.899
214.435
211.945
212.028
211.516
211.05
213.887
210.939
214.519
213.425
214.399
212.007
216.35
214.484
211.918
212.853
228.008
214.535
213.821
219.213
211.073
218.988
221.745
214.597
211.788
214.031
226.259
211.603
212.388
211.681
211.637
213.961
210.861
213.54
212.092
214.05
222.189
219.633
212.67
212.171
211.251
210.709
210.872
210.872
212.817
225.382
213.929
210.727
210.955
217.958
214.101
214.431
214.314
220.872
211.78
211.889
210.744
210.928
216.658
210.415
210.991
214.822
214.57
210.329
213.382
214.608
214.354
216.504
214.136
215.131
214.59
226.674
212.314
227.035
212.679
230.281
219.801
229.737
210.481
214.128
211.715
214.293
210.696
210.634
219.573
214.406
220.225
211.418
213.157
212.962
213.053
210.166
225.373
221.282
211.349
222.819
212.616
213.444
218.657
212.439
216.623
215.264
214.308
211.552
212.951
213.986
210.491
212.899
213.646
213.23
210.097
211.285
220.387
210.009
214.128
210.242
214.23
214.655
210.482
212.73
210.758
221.744
211.692
214.395
211.837
210.636
210.426
225.952
213.145
212.353
211.028
218.945
209.835
211.837
212.619
212.272
210.729
229.382
214.091
213.823
209.868
214.551
213.928
221.037
219.724
217.682
213.878
228.687
236.658
214.559
212.26
210.631
223.142
210.289
210.414
212.315
213.105
212.725
223.991
213.284
214.414
214.673
212.821
218.341
211.316
219.929
210.388
211.974
214.611
213.974
210.579
212.879
213.617
209.913
210.651
212.153
210.484
210.722
212.217
215.11
210.045
212.98
210.42
212.383
214.152
210.014
210.143
211.401
210.567
213.084
214.346
210.651
234.839
214.409
213.08
210.363
212.679
213.607
219.398
227.953
213.172
211.962
214.392
211.188
211.75
214.343
223.2
227.478
212.266
211.579
215.492
218.085
210.924
209.985
211.804
220.256
212.735
212.053
216.019
211.084
210.867
213.148
225.543
211.994
210.781
210.922
214.043
210.337
209.922
215.105
211.454
216.701
210.808
213.992
211.704
213.862
211.645
211.271
215.436
213.552
211.245
230.182
212.432
211.118
222.415
211.179
211.037
220.651
211.169
211.919
224.294
227.675
210.988
214.39
214.549
215.122
212.014
210.537
225.93
214.39
211.089
210.417
222.345
213.423
228.715
215.395
220.743
214.088
211.503
213.991
213.919
210.571
214.247
212.358
230.598
211.628
209.932
213.367
221.206
213.008
210.174
211.173
214.221
212.012
216.426
211.264
209.993
211.858
212.451
214.467
210.022
221.193
211.893
220.006
211.257
211.52
230.386
213.935
212.889
214.624
213.794
214.395
212.046
211.485
213.239
221.5
227.708
214.568
214.383
211.143
210.495
211.475
213.238
213.942
214.15
211.58
213.375
213.847
212.432
214.411
212.22
210.277
220.631
210.085
219.863
241.762
213.62
214.633
211.999
220.239
209.95
214.256
214.183
211.39
219.86
212.064
210.887
215.309
213.82
211.185
214.325
212.08
214.492
214.568
214.112
211.104
212.646
210.703
226.584
211.401
213.793
211.682
212.703
212.069
211.11
214.894
210.551
217.549
210.69
214.594
227.182
215.577
214.621
211.334
214.497
214.697
210.166
213.864
215.233
212.313
216.069
213.528
211.506
214.085
214.618
213.939
212.578
217.394
214.608
213.682
212.943
214.464
213.424
212.199
209.956
211.602
213.873
212.92
210.328
213.854
211.209
212.843
214.76
213.436
213.536
211.748
213.918
212.778
221.407
210.407
231.563
214.108
220.131
227.651
210.609
213.699
211.103
210.963
227.917
213.872
210.031
211.825
210.437
211.325
213.991
211.57
215.743
210.412
214.553
214.555
227.841
211.925
215.913
211.519
220.501
211.714
211.812
219.599
210.141
210.762
210.868
214.484
211.468
217.446
211.892
211.942
214.249
210.193
221.32
211.008
210.434
211.511
211.91
211.941
217.993
210.82
211.434
210
213.942
211.283
224.549
211.737
210.717
213.278
214.352
211.813
223.798
222.578
213.768
218.951
223.324
218.834
210.231
211.791
214.505
214.687
213.69
211.752
210.059
210.108
209.939
214.993
210.044
211.181
211.943
225.951
212.16
210.802
214.277
210.335
211.918
225.786
224.796
210.784
214.365
210.864
221.347
211.456
213.414
214.662
228.352
214.155
211.79
218.286
212.746
216.797
229.051
213.988
209.895
212.135
213.367
210.921
210.929
212.832
214.223
214.517
211.561
234.705
210.941
217.402
221.573
218.532
209.912
210.097
214.663
212.287
212.215
211.458
216.419
214.727
219.688
213.742
214.672
212.962
227.206
211.302
214.153
211.854
213.094
227.083
214.097
213.713
237.38
216.661
218.439
222.367
227.143
211.262
212.312
213.793
212.163
213.847
210.47
209.898
214.243
209.943
221.836
217.965
224.223
213.091
227.498
214.749
214.443
216.922
212.914
213.249
211.796
213.114
210.932
211.803
213.465
214.055
210.672
215.289
214.718
210.973
211.351
219.62
209.76
210.445
213.047
214.428
214.19
210.652
210.085
213.683
217.904
214.392
212.821
212.32
212.564
217.42
235.803
209.822
214.209
215.606
213.937
214.476
210.756
214.141
213.645
210.548
211.537
227.397
232.113
212.764
226.698
210.816
210.103
211.122
211.117
212.618
210.254
216.032
211.901
210.8
213.039
214.525
212.195
211.074
210.764
213.003
213.888
215.625
212.065
211.015
211.155
213.994
210.233
211.041
211.955
213.971
210.731
212.29
225.353
227.714
224.825
210.84
210.438
211.734
214.341
217.465
209.998
220.888
214.183
210.571
213.471
210.284
210.904
213.851
213.494
210.589
211.855
213.177
212.322
214.732
212.506
212.714
222.703
210.512
219.665
212.285
214.035
225.011
211.381
217.273
214.452
212.161
232.374
209.931
211.104
210.889
214.133
210.331
214.376
213.799
211.748
213.672
211.065
211.597
214.588
212.691
214.674
212.574
212.456
212.274
213.337
214.583
219.709
211.664
211.325
218.322
213.693
214.62
225.293
218.19
213.412
210.826
213.841
232.617
211.118
210.507
210.629
211.808
234.574
210.998
211.521
213.333
212.232
210.709
213.125
221.532
211.226
214.229
212.647
227.831
228.782
212.409
216.482
214.437
224.075
215.156
213.987
210.208
214.311
211.408
211.876
211.827
213.907
212.946
210.476
212.546
220.386
212.066
212.027
212.63
210.614
210.891
213.249
216.595
221.072
209.927
211.434
215.458
212.886
210.154
216.291
223.799
223.773
216.595
211.553
211.132
210.017
211.231
213.969
213.014
210.916
214.681
213.781
211.696
213.487
217.31
211.226
214.327
211.253
210.18
220.07
219.893
223.282
210.52
227.615
224.941
211.953
213.597
210.333
212.102
211.993
210.873
212.405
213.543
211.821
213.146
221.46
215.993
211.399
210.623
232.252
210.678
210.748
211.287
210.964
221.402
216.268
211.654
211.094
210.914
211.09
210.81
221.029
210.354
210.592
219.619
210.922
213.56
219.151
211.367
212.595
217.24
210.858
212.875
214.516
210.804
210.706
214.324
210.126
211.011
211.223
214.005
213.686
213.297
214.675
221.295
228.059
221.895
224.391
223.137
226.891
212.182
229.354
213.244
215.305
215.004
213.748
210.377
209.92
211.869
232.648
212.226
210.242
213.888
220.848
217.039
212.296
211.144
211.037
214.334
232.044
211.352
221.907
212.531
210.526
210.344
213.406
226.017
210.361
213.051
210.842
212.228
216.525
212.156
210.925
213.031
210.814
214.455
210.484
210.319
222.135
220.427
212.412
213.729
210.143
214.455
211.15
209.958
211.464
226.52
211.139
213.509
212.145
213.284
212.319
213.149
210.924
214.341
212.928
217.849
214.604
221.67
220.595
210.523
211.584
214.472
214.222
211.856
211.805
211.682
231.901
212.913
213.169
211.105
212.321
214.801
212.64
211.087
219.229
211.09
211.054
211.532
213.206
213.105
211.383
211.546
214.201
210.073
213.246
211.688
213.575
211.947
211.788
210.378
213.018
214.764
214.536
213.486
214.591
211.163
210.451
213.471
235.017
214.995
211.743
210.52
210.581
211.593
214.705
214.489
210.571
212.721
214.644
220.73
212.15
231.132
214.435
213.772
211.991
224.362
214.737
226.285
212.724
211.031
211.499
210.939
212.321
212.38
210.275
210.036
213.697
210.14
212.187
210.982
223.75
229.12
211.18
229.627
213.538
213.208
215.42
211.211
212.35
210.265
224.157
214.437
211.331
213.55
213.226
212.79
217.032
212.858
237.654
212.372
211.11
216.912
210.504
214.004
217.173
214.508
214.16
214.403
212.399
214.06
213.805
213.886
209.933
210.292
217.655
214.144
214.198
213.856
212.199
222.155
212.353
210.219
211.269
211.017
213.968
210.4
214.417
214.637
212.064
214.013
232.076
210.296
210.42
215.151
213.331
214.804
211.671
210.808
222.798
226.661
219.958
211.699
212.799
213.522
213.539
217.967
211.612
212.036
214.274
210.619
219.646
212.945
210.305
213.49
214.57
210.925
227.266
212.712
210.468
210.303
216.277
223.171
214.726
212.494
212.826
229.611
210.163
243.941
227.02
219.837
211.987
220.304
213.497
210.66
219.823
211.467
214.314
212.638
211.457
211.998
215.047
216.006
213.316
211.516
222.921
210.521
210.739
209.864
221.651
211.037
211.911
210
212.923
212.306
213.002
211.205
217.748
211.871
218.778
213.759
214.672
211.707
229.057
212.316
220.561
211.818
210.002
209.951
211.905
211.676
221.134
211.68
211.232
210.702
213.567
210.319
225.281
218.58
211.35
220.791
229.391
214.012
221.228
217.686
214.334
212.115
210.71
211.969
222.425
214.424
223.996
214.258
218.762
234.545
211.559
241.611
213.827
210.746
216.484
221.979
211.031
212.292
214.899
212.052
240.671
213.999
213.584
210.466
212.87
211.962
217.149
211.355
219.083
212.836
211.816
214.265
211.343
213.921
213.914
214.4
212.912
227.467
235.513
212.859
210.611
210.619
215.77
214.116
211.063
213.08
232.955
210.433
214.275
211.648
210.123
213.654
210.098
214.33
212.162
214.182
210.589
213.736
216.094
210.276
213.514
212.219
235.143
220.537
211.565
215.619
222.371
211.129
218.13
214.889
212.25
214.631
216.636
210.414
221.198
218.985
218.885
216.072
215.298
210.13
216.7
221.281
218.045
213.852
213.967
213.114
213.395
211.158
213.708
212.763
223.466
210.015
212.831
210.331
233.78
213.283
214.64
211.87
215.912
211.805
230.505
211.552
210.811
213.598
211.296
210.468
220.732
214.299
212.728
213.573
213.591
211.51
213.817
233.443
211.422
214.622
227.623
212.532
209.884
214.443
213.833
209.841
211.582
214.41
222.714
215.189
214.588
212.347
214.016
211.714
230.277
225.395
210.566
214.038
210.521
213.447
226.763
214.508
211.493
210.14
229.458
213.549
214.039
216.321
220.563
210.877
229.341
211.012
210.27
211.12
219.99
210.475
216.694
213.365
210.86
214.477
213.439
214.159
214.925
212.671
213.786
214.497
214.461
212.189
222.031
212.455
211.66
210.471
214.388
209.851
211.269
212.849
214.03
230.625
209.986
213.691
211.999
212.084
229.016
214.158
210.126
211.807
214.642
211.035
213.642
212.096
214.59
209.978
212.801
211.656
212.739
219.635
216.545
214.464
212.084
216.891
218.24
213.551
225.1
214.301
214.096
213.817
211.528
211.299
211.214
217.283
210.768
211.164
212.981
217.899
213.712
232.357
212.965
213.992
220.704
214.397
211.06
211.139
212.515
213.085
213.082
215.965
210.849
211.167
214.562
210.23
222.15
219.291
232.42
215.633
210.592
211.887
211.071
214.142
210.911
210.362
214.39
218.419
213.313
222.955
212.478
210.29
211.005
210.499
210.623
212.125
211.416
211.725
210.173
213.419
214.132
211.19
214.722
209.994
213.486
211.659
214.191
210.039
212.614
209.943
212.316
211.136
213.384
216.294
211.841
211.897
220.746
211.586
211.897
214.462
221.769
210.931
210.783
212.495
214.434
210.571
211.291
218.165
211.671
214.099
214.097
210.312
211.049
211.398
211.303
212.768
214.485
211.76
231.592
214.701
211.193
214.44
210.7
227.964
211.306
212.066
211.582
219.833
227.704
211.379
211.53
210.702
210.971
212.144
210.21
218.617
226.425
213.934
210.827
233.097
229.749
211.815
211.356
212.098
218.444
212.428
216.884
211.323
223.84
213.145
223.048
214.712
212.854
213.005
230.21
213.691
210.251
211.785
210.808
214.393
214.419
219.24
210.33
212.562
211.196
211.43
210.484
215.253
212.036
210.945
214.579
210.603
210.549
213.931
211.77
211.326
213.621
212.951
211.642
214.585
210.606
216.139
209.881
213.988
212.571
222.245
221.458
214.267
214.156
219.233
211.413
220.685
211.186
223.961
213.087
213.332
214.738
217.181
214.063
211.473
219.019
214.432
211.593
219.595
209.838
214.491
210.426
219.342
213.48
220.39
213.261
213.567
229.734
212.786
212.536
212.712
214.602
210.327
211.883
211.852
214.442
211.567
210.219
210.878
214.066
218.137
213.833
218.563
211.403
235.636
210.004
214.166
211.447
212.194
220.113
225.178
212.538
213.273
210.18
222.404
218.831
210.975
214.049
210.242
210.61
216.755
227.078
214.244
214.161
214.755
212.699
211.101
223.738
212.195
214.683
211.282
216.623
210.891
213.367
210.597
219.571
213.111
216.412
210.712
212.202
210.685
211.255
216.621
211.428
221.735
221.712
211.044
211.649
211.706
228.978
215.066
210.581
211.661
212.822
212.038
211.289
213.041
214.028
221.69
211.601
211.748
212.209
209.889
215.646
220.66
212.039
211.009
211.05
212.916
210.113
214.47
219.03
210.015
212.119
220.093
211.263
211.339
212.882
214.579
211.792
215.216
214.686
231.102
211.576
211.216
214.28
211.429
212.688
211.957
216.202
212.97
215.537
212.399
235.202
214.081
213.751
218.175
227.395
214.024
227.829
211.761
213.589
223.801
211.5
214.588
214.695
210.29
213.887
210.92
210.641
212.947
210.341
212.661
210.98
211.918
211.6
215.427
212.078
225.116
212.671
217.273
210.394
213.23
212.764
212.085
218.832
214.258
210.52
210.233
218.757
218.957
222.077
213.998
213.085
228.819
211.462
210.695
211.444
214.439
213.538
211.754
212.86
210.374
210.199
211.402
214.624
214.45
214.428
221.848
210.75
211.773
213.962
212.648
219.539
210.668
211.855
212.556
210.487
215.604
211.126
211.798
211.616
231.747
213.803
214.471
210.703
211.102
213.883
217.933
211.729
214.097
210.41
219.874
213.754
211.54
212.536
210.003
211.285
213.861
226.909
211.917
214.297
213.287
216.267
211.919
212.365
210.227
219.753
216.263
217.793
211.009
209.915
212.808
210.509
210.193
210.227
218.262
214.905
213.45
222.469
214.923
214.544
217.033
212.027
210.812
216.061
215.269
211.386
228.32
227.609
221.39
214.313
214.461
210.677
210.329
213.284
211.329
210.796
211.659
213.811
213.779
209.964
212.399
213.14
220.02
210.76
213.85
216.776
209.858
221.457
212.907
211.95
210.915
215.518
213.83
220.738
212.261
211.958
212.021
226.675
211.124
211.503
210.303
209.962
210.964
211.616
216.771
211.185
213.873
226.515
224.393
212.15
212.19
210.99
214.479
226.616
217.779
215.771
210.555
214.606
211.319
211.438
213.694
214.001
210.396
214.013
210.658
211.04
213.424
210.657
213.923
215.095
214.212
213.509
213.99
210.801
223.833
212.365
213.046
217.986
213.914
212.707
214.785
211.174
221.151
232.214
210.883
214.551
213.854
227.133
210.935
212.199
210.532
210.414
223.536
211.027
215.124
212.005
214.402
232.172
216.036
226.439
213.531
214.671
213.335
214.684
217.604
212.035
211.033
222.703
213.488
214.194
212.545
228.089
223.256
212.422
226.339
228.373
211.204
215.751
213.301
213.838
218.262
211.884
216.048
210.977
211.229
210.538
210.64
211.963
211.521
215.317
212.433
210.989
233.376
213.301
214.161
211.064
218.552
219.23
211.075
216.098
215.985
214.588
212.689
216.004
210.255
209.892
218.387
211.346
211.284
210.645
214.23
216.269
214.647
210.626
215.046
214.256
214.493
213.566
210.079
211.347
212.302
217.239
210.347
221.72
213.159
213.864
216.758
216.636
214.593
214.269
211.146
218.465
211.398
210.501
218.773
215.643
211.247
210.571
209.926
209.918
211.004
212.569
212.119
214.268
213.391
209.887
211.765
214.019
214.201
211.279
210.735
213.353
211.621
218.617
210.724
211.621
229.237
210.28
210.905
211.851
217.431
212.901
210.793
210.549
213.863
210.099
211.323
225.418
214.644
214.372
228.736
219.77
213.54
222.138
214.74
212.129
212.645
210.765
214.63
211.408
211.753
211.848
211.018
217.148
214.71
213.093
213.653
217.889
217.532
209.743
218.613
210.556
211.72
217.885
211.813
212.86
210.738
212.123
210.064
213.084
211.019
211.801
210.653
214.254
212.916
211.497
210.505
209.953
210.815
215.879
227.473
230.221
211.761
210.168
230.467
224.489
212.933
226.657
211.637
221.826
221.051
219.427
220.363
212.994
212.442
211.843
214.587
212.151
210.832
232.588
213.21
214.994
214.573
211.833
216.323
212.132
210.68
213.891
214.587
216.429
210.221
210.033
210.802
210.664
211.967
210.223
210.524
214.463
219.663
214.373
217.142
214.678
214.686
210.879
212.016
223.964
212.397
224.847
230.489
222.705
222.658
220.146
211.008
211.869
213.638
211.892
216.377
209.954
213.176
212.389
210.732
210.885
225.452
221.588
212.089
210.323
214.412
214.647
224.817
212.778
209.923
215.55
212.357
211.082
216.988
210.167
221.6
214.719
219.265
213.417
220.789
218.426
211.366
209.878
212.378
211.281
223.718
211.39
212.686
214.266
210.301
213.662
216.854
214.08
210.763
211.812
211.503
229.519
229.039
229.339
214.105
210.831
212.43
209.876
213.681
213.991
211.496
232.06
213.405
209.948
222.841
210.286
210.812
216.487
213.343
231.463
211.771
210.386
212.095
214.712
210.167
211.359
214.572
211.176
212.95
213.801
211.49
211.83
210.757
216.134
214.837
212.855
212.473
211.159
222.765
211.51
214.405
211.088
210.63
223.173
214.615
216.04
214.522
210.005
214.519
213.602
211.178
212.59
212.937
214.376
236.376
213.947
212.101
217.909
214.661
211.082
211.694
219.675
212.837
213.306
228.818
220.698
211.49
210.541
226.49
211.869
212.956
217.166
210.568
210.921
213.924
228.754
213.038
213.523
211.817
215.701
212.742
212.891
210.476
212.444
210.653
211.563
212.231
212.584
212.469
216.656
210.146
210.725
220.05
211.254
210.349
214.227
212.466
211.264
212.414
211.982
212.284
212.023
214.007
213.919
210.389
210.737
210.355
219.165
211.657
212.018
218.681
212.718
210.218
220.203
211.027
213.801
214.464
213.148
222.763
211.458
212.013
213.562
241.115
210.328
227.112
211.43
212.485
221.707
210.345
214.244
210.718
232.464
214.432
213.13
214.336
212.184
213.308
221.656
218.797
212.755
219.628
214.006
212.635
214.234
211.109
214.118
210.1
222.277
209.936
213.328
219.808
214.95
210.024
218.506
214.699
214.049
211.489
211.264
210.858
216.535
221.334
223.761
213.494
210.769
216.765
213.273
210.952
214.019
211.233
211.284
211.748
211.816
211.872
211.196
221.467
211.211
213.506
213.574
210.996
212.905
211.518
212.552
211.324
212.904
217.715
214.372
211.737
212.938
214.357
212.036
223.787
219.743
214.408
213.547
210.214
210.848
211.79
211.505
215.282
209.895
211.878
214.419
214.484
210.581
227.808
212.726
211.206
212.935
217.751
216.583
214.492
211.604
216.908
210.275
214.562
212.276
213.906
211.587
210.882
214.069
210.196
214.278
211.361
222.507
213.241
227.311
213.163
214.115
215.955
213.561
210.604
210.466
213.924
213.989
214.491
213.647
211.204
219.527
210.616
212.781
214.423
210.904
211.268
210.206
213.675
225.903
213.153
212.254
215.512
217.367
213.53
209.857
213.149
211.462
213.332
212.827
216.618
212.634
210.519
216.208
211.963
215.354
221.739
214.395
212.101
211.793
215.685
210.573
218.824
230.378
212.855
210.313
213.246
211.274
238.918
212.027
215.851
210.208
212.879
210.216
210.762
212.822
212.313
230.915
215.315
228.278
214.65
210.17
215.097
225.402
214.513
211.662
215.242
228.735
213.121
210.838
217.053
210.062
213.395
211.284
210.208
210.877
212.344
214.598
212.038
211.6
222.071
209.939
221.925
213.035
210.504
211.658
211.701
223.975
210.848
210.71
214.314
211.239
209.88
214.989
215.382
212.982
214.466
214.625
211.995
211.795
212.877
212.013
211.48
220.472
220.277
213.298
211.597
214.125
217.819
213.999
210.791
216.819
218.39
212.313
217.381
212.174
211.335
230.876
219.05
213.064
213.973
213.998
223.948
218.063
211.883
221.155
214.741
211.595
231.124
214.226
210.815
211.15
223.536
209.964
218.653
211.493
210.965
214.79
219.863
211.176
214.708
214.654
211.358
214.525
212.088
211.806
216.056
219.452
214.272
221.621
214.273
211.368
210.331
215.002
212.141
210.311
210.943
213.783
217.858
210.578
211.354
220.219
214.344
212.176
211.422
214.609
209.917
211.432
211.95
213.19
211.929
214.041
209.867
211.929
211.831
218.118
218.702
214.153
214.667
214.66
210.282
211.924
211.887
211.394
211.47
214.332
212.175
212.252
210.511
211.463
211.808
210.798
211.763
213.35
210.652
218.337
213.084
214.278
211.607
213.58
211.991
219.501
216.363
213.44
210.918
218.002
212.67
217.787
213.856
212.586
210.633
212.03
214.395
213.704
214.465
212.193
211.985
210.524
211.259
215.933
214.509
210.269
213.797
219.956
212.183
210.479
212.068
221.38
209.82
211.561
211.408
216.165
210.878
210.877
210.726
209.967
213.408
216.253
224.195
211.764
210.788
210.761
211.61
210.961
211.152
226.894
222.233
219.727
219.183
210.454
224.007
213.368
211.26
221.696
227.62
210.388
213.941
212.455