# vtk DataFile Version 3.0
vtk output
ASCII
DATASET POLYDATA
POINTS 10000 float
-23.8568 -31.4932 7.4501
-21.9684 -33.3752 11.2417
-22.2963 -31.2761 9.77027
-22.8761 -36.3343 14.1242
-21.6515 -33.3743 11.0927
-21.9195 -32.7751 13.1797
-22.7723 -31.1055 8.5323
-19.8553 -30.7374 10.5439
-20.5708 -30.0185 10.6027
-22.7831 -30.5929 9.03098
-22.4981 -32.3834 8.32101
-22.5446 -33.8975 9.46561
-22.5485 -35.4119 13.6166
-21.5538 -37.7547 11.6037
-21.2763 -36.1131 12.9351
-22.1206 -32.1706 10.2857
-19.7695 -41.5273 9.03779
-21.529 -33.6412 12.8279
-20.7748 -30.9652 10.652
-19.4521 -30.3035 11.5633
-21.4861 -44.0533 7.99984
-22.2652 -34.4624 13.6599
-21.4013 -33.464 11.6561
-23.0619 -33.4249 7.90258
-22.7683 -31.8721 9.41658
-23.1445 -31.7824 7.15306
-20.6874 -39.6344 8.41579
-23.1582 -38.0162 14.4558
-23.0474 -31.8419 8.75608
-20.5004 -32.5455 11.7431
-22.2468 -37.5979 7.82934
-19.0519 -27.9958 10.268
-23.3374 -30.7053 8.11869
-22.8189 -33.9703 8.98209
-21.3459 -31.1155 9.95016
-21.407 -33.2286 11.9176
-22.2352 -30.8492 9.05177
-21.7588 -34.9193 11.0816
-20.955 -31.9011 10.3348
-21.2375 -33.4404 12.2448
-20.4291 -41.4097 8.3265
-21.5793 -36.7706 8.41969
-21.1533 -32.3124 11.2794
-22.2388 -34.021 10.5102
-21.3369 -31.0279 10.6852
-21.768 -30.8039 9.98868
-22.7289 -31.7257 9.52448
-22.4732 -33.4914 10.3495
-20.1978 -30.8844 10.6861
-20.6434 -40.1693 7.98712
-20.2887 -31.8878 11.6817
-21.0361 -38.6302 10.106
-22.7973 -34.5421 9.43433
-21.5845 -37.0236 8.46308
-21.4758 -35.0542 12.351
-20.7191 -40.0083 9.40337
-21.4893 -37.196 12.906
-24.3256 -29.8861 6.9267
-21.4085 -36.0137 9.79111
-20.9135 -30.7232 10.7334
-22.8155 -32.7624 9.63059
-21.9856 -35.5795 9.9722
-23.9826 -28.8367 7.15239
-21.9333 -30.3997 9.86963
-23.3497 -32.4385 8.92607
-23.5593 -30.5109 7.93014
-23.4514 -37.0126 15.0078
-22.3291 -30.9426 9.64885
-27.2636 -38.4667 17.598
-22.9308 -35.7574 13.9235
-21.5146 -37.6369 12.8419
-22.8137 -33.3035 8.04209
-21.3241 -34.4855 11.7968
-21.6635 -35.9912 9.14085
-22.7506 -35.6933 13.5652
-20.2588 -44.4988 7.98806
-20.8417 -31.0346 10.7243
-24.418 -32.1631 6.78688
-21.2264 -31.2944 11.1011
-21.8459 -39.9268 7.82023
-19.3184 -42.8998 8.48877
-21.1312 -39.5678 7.71925
-21.8524 -36.3719 9.84408
-21.4524 -35.439 12.0493
-21.2894 -30.7181 10.2505
-21.1055 -33.4913 12.7701
-22.6185 -32.3258 9.47198
-22.3924 -33.5712 9.97069
-21.1289 -38.8505 8.70992
-21.9105 -37.0943 13.3123
-23 -35.2832 7.62072
-22.9517 -31.256 8.69868
-21.2311 -31.0176 11.0075
-31.6859 -37.7612 19.259
-22.5896 -34.5587 8.92787
-22.9946 -31.1752 9.1315
-22.2429 -37.2658 7.61127
-20.2776 -44.2192 8.64062
-22.053 -31.0002 9.7852
-24.1924 -32.4437 7.10309
-22.154 -33.8904 8.86308
-22.008 -34.1014 8.91764
-22.9395 -34.6875 8.13533
-21.1089 -30.8402 10.3529
-21.3335 -37.8881 9.02959
-21.5086 -37.5967 8.97319
-21.1781 -33.7636 12.3371
-22.1032 -32.0157 9.94855
-21.608 -34.2163 11.8244
-19.5325 -29.4304 11.0905
-22.7129 -32.4745 8.9843
-20.5623 -32.2481 11.4234
-19.7007 -33.1111 11.7269
-21.809 -35.894 11.5444
-22.7019 -32.7543 9.62633
-21.8621 -33.1746 10.5021
-20.4226 -40.0479 8.31789
-21.2875 -28.098 9.22689
-23.6597 -31.0149 7.5122
-22.9923 -30.8612 9.0619
-21.1523 -34.0808 13.0166
-23.6302 -39.157 15.0768
-22.7668 -32.6788 9.67444
-20.6765 -33.163 11.5339
-22.7899 -32.5445 8.99941
-20.4985 -42.3001 8.59527
-21.6196 -32.5338 10.4355
-21.862 -32.991 12.8265
-23.3734 -32.9515 8.76791
-22.8427 -32.452 9.38468
-21.1871 -30.2584 9.85636
-21.2786 -44.2511 8.1682
-22.1297 -35.2562 8.86956
-21.4311 -32.4501 11.037
-21.9909 -31.4542 10.3924
-19.2863 -45.4152 8.73963
-22.4642 -35.1463 9.97529
-20.819 -31.4178 10.7086
-21.2463 -32.5621 11.1171
-22.9766 -30.2368 8.18095
-21.3748 -30.193 10.3159
-22.2565 -39.3945 7.99333
-20.5902 -32.4898 12.1883
-24.1569 -39.3337 16.3061
-22.5244 -33.9732 9.80121
-22.5541 -35.416 13.5856
-23.7067 -29.772 7.9198
-21.75 -36.4179 8.45227
-24.2752 -31.2169 6.94123
-23.3359 -30.9815 7.56761
-20.0149 -31.8708 11.8043
-21.1203 -43.4562 7.96587
-22.1823 -42.1774 7.07822
-23.3118 -37.2942 14.5211
-20.0816 -32.0065 11.1879
-21.4997 -29.0774 9.59436
-24.425 -31.7068 6.77131
-21.3476 -28.9014 9.48098
-22.1921 -33.5257 10.3454
-21.9955 -32.1307 10.5077
-23.4957 -32.2366 7.97103
-21.2888 -32.6125 11.2479
-19.4723 -43.29 8.1183
-22.1068 -34.7148 11.4126
-21.9902 -36.5913 13.5196
-23.0116 -37.7163 14.0981
-23.8006 -30.5319 7.97292
-23.5808 -31.2965 7.64923
-22.524 -33.9396 10.4176
-22.7262 -34.5693 8.39979
-23.1981 -31.3055 9.23239
-18.6888 -42.9361 9.42367
-23.2985 -38.8506 14.9137
-24.3883 -39.6562 15.9109
-21.9896 -35.5421 10.2955
-22.0018 -34.3068 11.2009
-22.4292 -34.2714 8.48882
-22.756 -34.4227 9.43688
-22.1457 -28.9889 8.76288
-23.3186 -32.7423 8.52557
-22.2977 -30.8035 9.63689
-23.5589 -30.9451 8.27997
-22.8795 -29.5875 8.67328
-23.6766 -30.7341 7.97785
-22.6022 -31.3957 9.67249
-21.3276 -32.2826 11.119
-22.7968 -30.0527 8.87253
-21.3904 -31.7094 10.423
-20.6883 -33.2136 11.5664
-22.2018 -30.4238 9.75247
-21.9891 -30.9959 9.39346
-20.4987 -29.3574 10.0535
-22.3088 -36.2545 10.354
-21.1127 -33.0388 10.9098
-23.7144 -39.8207 15.6057
-22.8777 -31.6271 9.34959
-24.6879 -47.4697 7.34557
-22.0226 -35.8863 13.1503
-22.0738 -34.2636 11.6269
-22.7956 -33.1091 9.71079
-22.4121 -31.1746 8.48342
-21.3205 -35.0322 11.9759
-21.2233 -38.8048 8.63197
-20.803 -43.9284 7.732
-20.4021 -31.5085 11.4883
-20.1948 -31.3226 11.2821
-23.0097 -29.0872 7.76533
-23.1267 -30.2785 8.55942
-23.0973 -29.6741 8.46332
-24.4009 -38.9658 15.6192
-25.0812 -29.6964 6.36711
-21.2943 -42.7113 7.85666
-23.9554 -30.8915 7.89186
-23.0042 -33.5152 8.76408
-21.5671 -37.1987 8.90429
-20.7247 -39.7463 8.97167
-22.186 -29.4439 8.83236
-22.8046 -31.9351 9.40868
-21.7515 -35.1144 11.2056
-20.9156 -40.6056 8.52236
-21.7511 -34.6235 11.0826
-21.5706 -31.6135 10.0008
-21.1436 -38.2556 9.08696
-22.4138 -32.4281 9.71032
-22.6106 -34.3139 10.1039
-23.2611 -28.8824 7.86884
-22.3884 -36.5697 7.59192
-21.2008 -37.7542 9.64665
-22.6371 -34.8984 9.32883
-22.5604 -34.3111 10.2014
-19.8939 -32.1833 11.946
-22.2883 -30.7635 9.80587
-22.9774 -30.1051 8.99054
-20.399 -39.4966 9.27728
-22.7859 -33.7251 8.96297
-23.4429 -32.2686 7.91305
-22.257 -33.1852 9.63148
-21.5091 -37.1347 11.6941
-21.7325 -36.3508 9.32975
-20.7604 -39.1014 9.55582
-22.1414 -32.6843 10.5729
-21.8799 -33.8092 10.5111
-23.9086 -31.1758 8.38414
-19.6624 -30.5734 11.204
-20.9782 -29.7672 9.87397
-20.7377 -43.7301 7.6754
-23.2211 -33.1994 8.34025
-21.7898 -31.7291 9.93772
-26.0293 -29.9399 6.22294
-22.5546 -30.8429 9.12378
-22.7428 -34.4701 10.0881
-22.8956 -33.0887 7.48072
-22.5442 -31.9435 9.94151
-21.5604 -31.1489 11.0485
-19.9288 -42.6674 8.13075
-22.9991 -35.8629 7.57685
-22.9845 -33.5629 8.91346
-21.7334 -35.7377 12.4385
-23.9817 -38.0215 15.5005
-20.5841 -38.256 9.10499
-18.7967 -42.9738 9.57721
-23.1036 -31.0774 9.22699
-22.2331 -46.7503 8.20266
-21.8667 -34.8888 13.0076
-23.0038 -32.1922 10.1768
-22.4033 -31.4455 9.43908
-22.9187 -35.244 7.94613
-21.5265 -33.0472 11.8827
-22.1006 -40.384 7.90606
-23.7105 -30.652 7.94058
-25.3069 -29.6023 6.8018
-20.5185 -31.3022 12.7671
-23.2763 -30.0552 8.01334
-20.5052 -32.6706 11.8969
-21.2766 -32.1976 11.9104
-22.8737 -32.0608 8.83288
-20.4599 -40.6642 9.44741
-21.0702 -32.0319 11.3023
-23.2167 -36.8696 7.43946
-21.326 -37.8997 9.43118
-22.9276 -33.2287 9.3592
-23.2507 -32.7016 7.84987
-18.6447 -43.4043 8.43763
-28.8658 -38.0489 18.311
-22.5358 -31.103 9.51251
-21.3088 -30.7232 10.0827
-22.3561 -34.7625 13.1478
-21.9707 -32.8087 10.733
-23.7006 -31.9611 7.90125
-21.3424 -30.4442 10.2238
-22.9081 -31.3271 9.28824
-23.6939 -31.7369 8.16864
-21.7125 -32.3295 10.4274
-21.7101 -34.3693 12.9864
-22.8497 -29.5277 8.80095
-19.9569 -43.4132 8.5678
-20.9598 -37.3739 9.7383
-22.6977 -33.7607 7.80517
-22.6953 -30.0703 8.677
-22.2863 -31.02 10.0406
-22.0606 -45.9659 7.80131
-20.8252 -32.6749 12.5113
-20.6648 -31.8187 10.6987
-23.1616 -36.3417 14.1234
-21.0016 -32.6808 11.6179
-21.9284 -34.7031 13.2535
-18.1465 -29.9442 9.55806
-22.6045 -32.6845 9.02662
-20.1984 -31.5259 11.4087
-21.1869 -44.7379 8.66162
-22.2155 -37.8994 7.68172
-21.9435 -36.4532 13.4741
-21.3487 -38.6658 13.015
-21.8837 -30.9531 10.6659
-23.2324 -32.9237 9.90914
-22.1308 -30.0758 9.68631
-19.5261 -31.3277 11.3871
-21.0144 -33.2181 11.9397
-23.0776 -32.0666 7.81536
-23.1453 -31.2038 9.24839
-22.9278 -31.4225 8.15014
-21.3134 -32.7654 11.3235
-21.2407 -33.3994 10.9209
-22.2648 -36.6582 13.3162
-23.2093 -31.4827 8.44641
-21.7927 -36.6277 10.181
-20.2348 -41.6021 8.82948
-22.0045 -29.7386 9.40123
-21.0634 -38.2672 8.29803
-23.5731 -42.1582 7.10408
-25.5452 -39.098 17.0425
-22.6099 -37.563 13.8282
-21.7715 -33.818 10.8084
-23.5488 -33.2105 7.55098
-21.8489 -36.4597 9.96958
-18.9451 -42.2796 9.42843
-21.5795 -34.3534 12.6945
-23.08 -32.1377 9.12814
-21.0995 -44.0741 8.81255
-20.7965 -30.9183 10.9326
-22.1556 -35.0779 9.55638
-19.8851 -40.3515 9.16063
-20.0233 -31.6121 12.0393
-22.7021 -30.1185 9.22734
-21.4917 -34.1548 12.5676
-19.534 -41.2192 9.67155
-24.1617 -39.2888 15.7449
-22.0729 -34.6141 13.4003
-19.6113 -31.4758 12.0043
-22.264 -34.22 9.44238
-23.7424 -30.2955 8.27947
-22.3875 -32.1321 9.47293
-20.3723 -41.467 8.17647
-21.3114 -30.8922 10.2343
-20.3705 -32.78 11.2613
-22.7617 -34.6028 9.01537
-23.3524 -30.7451 8.29139
-22.371 -33.5887 8.90648
-22.8486 -34.7067 9.26382
-22.047 -36.1154 8.93001
-22.96 -30.6912 8.90754
-23.0752 -35.968 26.2324
-22.7251 -30.4786 9.00793
-23.2147 -37.7934 15.1759
-21.9463 -45.8216 8.03085
-24.1904 -29.8703 7.43226
-23.2103 -38.6756 14.8348
-22.5684 -34.2432 10.3605
-22.2364 -34.955 8.70591
-22.0223 -36.7315 13.4664
-20.4565 -28.5353 9.38226
-20.9486 -33.2377 12.1702
-23.8803 -30.527 7.67336
-21.3301 -33.1534 10.8133
-19.9721 -41.9222 9.28719
-25.843 -38.9654 17.3133
-22.8635 -32.0069 8.93576
-21.5241 -37.633 11.843
-23.0418 -37.9468 14.5993
-19.5622 -33.0927 12.3961
-20.3714 -31.0433 10.4754
-23.4325 -31.5537 7.91903
-23.007 -39.1729 14.4302
-23.0063 -30.3622 7.94754
-28.7498 -37.9148 18.1613
[...]
POINT_DATA 10000
SCALARS t float 1
LOOKUP_TABLE default
231.759
220.381
220.709
218.578
220.557
220.169
224.841
221.565
221.382
222.629
225.78
220.23
219.36
218.447
220.46
220.249
218.695
220.788
221.429
221.197
223.701
219.578
221.148
227.921
221.103
234.017
222.775
217.863
223.511
221.918
227.203
221.258
227.369
221.604
221.049
221.199
222.606
219.654
221.417
221.221
222.911
223.47
221.352
219.473
221.103
220.622
220.924
219.527
221.627
225.6
221.883
216.609
219.771
223.129
220.716
217.502
219.864
236.339
218.813
221.366
220.355
218.427
235.11
220.897
222.427
228.697
217.539
220.985
215
218.829
219.656
227.08
220.995
220.089
219.205
224.004
221.412
236.533
221.289
226.71
221.645
227.621
218.134
220.488
221.033
221.119
220.928
219.59
221.203
219.451
229.244
223.97
221.267
214.227
221.591
222.002
228.823
219.887
220.853
234.04
222.468
222.158
225.877
221.186
219.796
220.183
221.228
220.372
220.817
221.037
222.379
221.804
222.311
219.489
220.422
220.22
223.35
223.497
231.478
222.398
220.825
217.074
220.319
221.747
222.252
220.826
220.631
220.604
222.941
220.972
221.327
222.472
221.637
220.955
220.486
219.066
218.433
221.457
221.155
227.131
221.096
225.507
221.6
216.159
219.552
219.372
229.107
223.35
235.733
231.101
221.852
224.415
231.455
217.935
221.927
222.053
236.833
222.359
219.764
220.371
227.845
221.176
223.948
219.817
219.489
218.194
228.418
230.38
219.256
224.212
221.546
217.112
217.342
216.389
218.502
219.929
223.888
219.858
224.602
224.203
221.044
226.255
224.712
228.297
220.732
221.125
223.525
220.971
221.742
221.006
221.657
221.405
217.73
221.105
216.621
221.274
226.136
219.849
220.275
220.061
225.195
220.779
221.654
225.992
221.737
221.718
230.392
224.897
225.632
216.59
240.828
225.547
228.811
222.801
220.706
219.467
223.98
221.092
219.67
221.783
219.867
220.743
219.358
220.522
218.915
229.898
229.123
217.94
219.829
218.964
221.875
220.743
223.026
218.139
221.84
228.232
220.533
219.075
219.287
217.51
220.128
219.936
225.514
221.377
221.459
226.515
225.097
220.645
241.991
222.143
218.728
231.047
220.087
221.07
223.976
229.395
222.085
220.265
216.828
219.443
216.655
221.651
220.881
220.277
219.721
221.289
226.975
221.145
225.852
228.578
237.467
220.822
228.276
221.839
221.397
223.151
217.171
221.447
230.133
218.318
220.647
228.527
221.972
214.367
221.129
220.966
219.866
220.248
228.383
221.036
221.477
226.685
220.565
220.471
224.194
220.775
218.136
228.498
224.384
220.332
223.984
221.35
221.598
218.441
221.581
220.067
221.793
222.149
221.782
219.107
228.184
219.577
219.222
220.752
219.515
221.26
221.672
221.499
229.038
221.558
227.05
221.171
220.866
219.358
225.049
217.707
219.781
221.909
223.866
231.081
215.612
218.631
220.078
230.411
217.812
217.12
220.837
221.716
218.591
221.445
219.482
218.328
221.572
221.999
220.92
216.537
216.523
219.874
221.53
220.237
226.558
221.113
223.955
221.012
221.931
221.109
226.237
222.341
220.012
220.94
223.148
217.195
222.77
217.305
222.442
232.509
217.478
219.028
222.557
219.449
222.732
221.46
230.449
220.803
217.371
215.427
222.697
218.876
217.847
222.02
221.654
228.431
217.666
228.644
214.404
219.188
221.503
219.727
220.854
217.3
220.259
218.759
220.332
217.035
217.168
221.52
218.341
224.273
220.546
219.649
219.478
217.098
222.248
220.756
230.086
216.459
221.202
224.746
220.603
215.435
219.465
221.179
238.709
219.45
221.086
221.53
215.863
220.492
219.13
226.328
225.999
221.707
222.672
217.837
234.753
217.955
220.536
224.524
242.698
221.211
223.195
229.306
221.533
221.413
220.361
225.309
222.104
223.809
220.795
224.572
220.717
222.076
222.612
221.306
217.818
220.643
226.934
220.758
222.678
220.69
220.085
220.552
221.599
224.534
226.475
221.427
220.717
220.866
220.107
221.173
221.578
224.333
221.105
230.672
240.664
229.209
220.772
221.332
219.351
219.326
217.047
219.686
221.855
220.215
221.789
218.238
220.383
221.806
224.89
228.086
221.566
218.178
221.22
219.61
217.72
225.618
221.023
220.518
219.599
221.6
223.533
224.635
222.617
217.8
225.138
220.889
220.048
221.112
219.343
230.234
227.117
221.648
221.813
227.912
220.258
220.063
220.642
221.488
228.091
220.077
221.587
225.288
221.033
224.97
225.327
220.848
217.332
222.681
218.737
221.336
221.375
224.041
233.439
218.855
221.895
222.03
219.938
219.004
225.764
221.362
220.461
219.236
229.21
225.488
220.577
221.737
228.401
216.233
220.58
217.955
224.785
220.978
218.63
217.785
228.101
221.467
221.072
221.141
227.134
220.717
224.789
233.516
224.504
213.975
225.329
218.751
219.616
225.116
221.285
219.93
219.036
221.666
219.94
219.804
220.142
224.011
219.622
229.447
218.141
220.981
224.47
226.04
222.514
223.519
220.192
220.973
216.213
220.284
220.485
219.859
224.5
220.49
220.771
216.791
221.389
224.287
230.858
221.54
222.516
218.145
228.907
219.036
219.568
220.849
227.2
221.327
218.29
241.914
226.091
221.261
223.894
222.387
218.057
221.285
219.601
229.59
221.638
221.473
219.405
219.621
219.915
220.728
220.239
219.536
219.61
221.392
220.376
217.508
220.435
220.849
222.482
221.498
217.962
224.853
219.134
220.402
219.464
220.733
224.492
229.459
221.716
221.316
217.6
221.96
220.261
232.673
220.907
220.903
220.507
221.317
219.162
220.738
217.834
221.766
222.953
221.623
220.108
221.839
221.065
219.023
221.641
221.534
225.649
219.47
234.494
225.72
226.906
238.292
218.961
219.119
218.937
224.526
225.589
222.182
222.286
219.026
228.859
221.308
216.811
220.213
221.555
215.667
226.074
223.247
217.42
220.858
219.937
221.596
220.236
220.528
221.694
217.616
229.826
221.063
220.933
229.691
221.518
219.596
223.991
231.706
220.608
221.717
221.571
225.758
219.274
220.476
221.193
223.4
227.074
224.607
223.585
221.246
222.802
221.926
220.355
227.643
220.688
221.194
221.262
226.237
227.119
220.969
219.883
216.745
223.789
224.884
221.097
221.431
220.649
220.36
226.843
221.024
221.822
221.517
221.38
220.898
224.396
221.379
221.222
225.817
221.443
218.402
220.265
219.117
225.257
220.789
220.183
228.556
221.283
220.918
220.444
228.596
224.384
228.303
225.094
220.801
222.092
221.044
219.88
213.69
222.883
219.1
221.105
216.168
222.131
229.253
223.839
222.182
219.936
220.731
232.012
221.988
222.436
221.484
223.105
224.632
227.155
227.602
221.712
228.813
221.626
220.486
220.671
220.128
224.186
221.514
229.159
227.019
221.361
224.195
227.372
218.195
224.904
218.476
217.121
220.116
221.198
222.382
220.094
221.124
221.684
226.712
222.503
220.565
218.65
220.84
220.954
228.037
236.1
221.002
221.074
233.05
220.174
214.074
219.626
221.958
225.635
217.597
219.164
221.27
218.315
220.26
218.758
221.457
219.558
224.953
225.778
237.559
231.073
225.209
241.135
221.381
226.544
222.083
231.548
221.123
221.289
223.82
221.348
221.369
223.92
221.378
221.8
221.437
241.363
222.056
220.387
218.852
220.061
220.798
226.854
221.154
226.806
218.027
222.066
219.693
219.355
234.821
220.357
219.502
221.195
220.634
223.174
225.899
220.856
219.647
220.218
221.076
222.441
221.896
222.243
221.431
218.281
221.39
220.882
219.911
224.504
222.891
221.952
233.846
220.998
214.862
220.374
221.457
224.018
219.768
220.873
219.981
221.339
222.673
220.087
217.701
234.91
218.206
221.339
228.463
221.421
224.472
221.456
221.021
226.871
223.132
213.544
221.74
225.282
221.467
221.432
221.728
221.575
222.218
216.735
220.321
220.345
217.072
220.915
216.709
221.068
222.123
220.648
219.532
220.301
216.101
220.563
221.509
221.945
226.146
227.399
221.285
217.214
219.999
219.823
221.613
225.792
217.782
221.369
220.068
221.355
220.267
219.275
220.947
222.704
225.358
219.113
233.055
220.886
227.27
219.263
230.271
218.956
224.544
218.791
229.52
221.185
222.589
218.028
223.543
227.486
221.204
218.597
219.13
220.873
220.355
225.255
222.685
226.866
225.114
220.374
225.965
215.508
220.189
217.581
223.435
221.051
224.925
236.929
227.753
220.815
221.026
221.53
219.136
238.6
221.708
228.23
221.447
222.312
240.779
223.541
219.786
221.321
219.963
216.61
220.874
218.044
220.643
215.269
221.142
219.403
217.303
220.844
221.675
220.781
220.804
227.559
222.998
221.428
221.044
221.319
220.645
220.968
222.153
220.212
218.272
220.512
221.4
224.862
219.968
223.697
224.541
218.662
219.722
219.974
221.17
222.583
226.368
221.522
219.623
221.526
220.483
226.919
231.887
217.43
220.559
221.139
219.602
217.807
219.001
220.865
221.71
218.884
216.316
225.246
221.255
221.748
216.21
226.728
237.782
219.137
221.377
218.948
228.786
222.556
232.615
227.345
221.478
223.496
233.109
223.62
220.813
226.154
220.769
219.49
222.749
229.447
224.185
231.333
236.294
226.186
221.567
226.355
220.516
219.751
220.548
232.83
223.088
221.251
220.173
221.557
223.312
219.772
221.105
231.342
221.397
222.327
218.861
218.806
221.471
234.572
220.466
231.812
220.654
220.119
221.413
226.408
216.699
233.44
220.236
217.868
222.675
219.598
221.084
223.207
236.405
221.338
237.934
228.352
220.663
224.03
227.84
220.31
221.438
218.748
220.166
227.482
220.271
227.224
219.824
224.397
232.425
224.025
232.485
221.15
219.932
228.545
225.399
220.801
220.66
226.977
221.605
231.022
220.938
221.871
221.233
224.522
220.667
223.173
219.316
229.089
220.851
219.612
220.785
220.36
222.101
221.417
220.049
221.803
221.876
226.426
228.205
217.016
221.82
224.097
219.866
219.797
221.515
226.642
220.252
219.547
224.461
220.472
221.399
221.471
221.22
220.574
217.982
221.295
215.97
218.045
220.209
221.812
221.357
228.384
220.285
222.406
217.696
235.111
221.657
218.674
218.589
220.789
217.687
221.534
222.173
219.411
218.832
220.472
217.078
231.291
221.047
225.549
221.722
224.084
221.208
221.943
221.582
221.557
224.168
220.87
227.441
225.026
220.521
220.157
221.833
226.095
220.133
217.132
221.185
222.916
220.319
224.225
221.11
221.105
221.344
224.396
221.35
233.683
220.892
226.038
226.439
219.943
219.144
217.819
225.806
222.147
218.354
226.518
222.226
221.225
220.684
221.007
220.924
221.993
220.587
219.697
214.344
220.027
226
220.551
219.916
224.369
232.009
222.119
220.932
222.992
224.703
223.634
219.279
221.415
221.619
242.81
215.528
216.265
219.446
224.166
216.15
226.165
219.588
221.985
220.199
221.588
221.925
228.395
220.917
220.592
219.045
221.373
219.755
225.046
226.703
220.863
219.825
219.637
221.261
237.349
224.21
221.303
219.95
220.642
220.661
220.447
220.839
219.583
233.333
219.241
223.569
221.605
219.406
227.487
219.909
220.543
220.201
218.298
221.094
228.104
223.307
214.054
221.05
221.022
218.488
221.591
228.289
217.207
219.657
219.942
219.285
226.99
221.215
220.275
218.701
219.504
221.132
222.831
222.355
219.815
231.955
220.817
221.571
220.777
220.478
226.324
230.048
221.511
219.757
234.804
216.647
221.317
221.17
221.767
221.787
214.372
232.956
215.566
223.935
220.004
221.286
221.589
222.045
229.667
238.561
218.823
221.836
221.726
221.29
221.152
223.072
217.694
225.21
221.716
223.275
221.472
224.176
220.771
221.211
221.993
220.861
220.744
226.793
220.635
222
221.366
217.057
218.375
220.603
221.785
224.64
221.201
219.888
218.349
221.814
220.554
221.278
227.757
229.547
226.832
220.679
228.514
221.046
222.657
220.21
222.183
220.031
220.758
221.522
219.646
220.433
221.901
218.127
220.393
220.481
216.158
222.373
219.564
220.576
216.686
220.608
219.726
218.204
222.506
230.861
221.735
216.732
221.835
222.297
222.346
223.819
217.177
236.898
223.229
226.209
219.692
225.124
219.511
223.492
221.134
227.536
225.109
221.464
221.502
226.039
223.593
223.032
221.329
223.551
219.593
221.7
221.331
221.498
223.861
225.763
231.516
219.648
221.087
221.511
223.899
221.729
219.087
221.32
220.326
220.101
220.131
234.079
220.932
218.873
221.099
221.626
219.806
230.127
221.035
221.328
216.827
215.807
217.855
217.919
223.523
220.249
221.162
221.677
222.782
217.393
224.39
218.673
219.638
220.336
220.79
228.079
238.598
221.061
218.913
226.272
220.06
231.415
220.277
232.727
228.988
221.452
217.624
227.322
225.004
216.413
220.815
219.759
221.771
224.283
219.565
219.779
221.14
221.915
221.424
222.998
225.223
221.176
226.862
219.002
220.488
219.894
217.376
220.57
220.755
220.518
220.518
222.263
222.014
223.908
221.511
219.719
222.025
218.054
220.546
232.579
220.286
221.635
215.92
220.904
231.352
229.332
221.67
221.542
224.55
221.95
227.637
219.935
220.551
218.563
220.736
221.193
224.713
221.404
220.417
219.206
224.267
218.615
236.172
220.035
228.835
219.149
219.061
218.153
225.702
220.914
225.666
214.3
218.777
221.872
221.384
220.747
220.991
233.101
222.372
228.804
223.306
221.638
221.202
221.213
229.236
228.302
218.587
226.389
221.12
217.552
222.777
221.853
229.018
220.391
224.334
219.018
221.352
220.359
230.84
232.857
218.925
221.146
221.07
221.197
220.245
220.133
222.812
221.838
218.414
237.572
223.444
220.912
224.997
218.337
222.278
218.875
217.758
228.101
227.242
220.585
220.755
219.759
221.527
219.921
226.164
221.304
228.673
221.448
229.063
220.848
221.142
227.561
226.432
221.241
223.803
223.734
221.855
236.709
224.112
217.581
221.182
221.326
221.589
216.685
223.893
221.586
218.98
219.964
223.592
230.051
221.328
231.858
223.363
224.342
216.374
226.34
225.158
213.759
221.488
218.623
216.827
225.776
220.131
220.338
228.391
220.197
221.236
221.424
225.238
226.801
223.797
223.904
218.48
219.117
221.578
220.289
220.431
220.52
220.375
221.163
219.652
220.014
219.493
219.65
223.02
222.303
218.866
220.986
220.319
221.228
216.381
219.928
221.578
217.601
221.265
223.787
223.839
223.906
221.754
217.186
221.192
219.506
221.656
231.364
220.006
221.548
221.217
231.296
223.409
221.757
220.954
222.846
226.802
222.722
233.778
219.437
221.134
221.164
230.702
221.562
221.855
220.336
223.325
228.086
220.936
221.489
220.818
220.015
220.457
221.804
220.928
232.436
219.293
225.225
231.958
217.224
219.927
215.506
216.107
220.601
237.703
220.311
222.222
223.831
226.111
231.068
220.734
219.756
222.185
221.281
221.85
224.507
220.343
223.446
215.875
220.251
220.042
219.352
221.185
221.513
223.499
226.276
221.726
220.851
233.489
221.709
217.442
221.585
229.843
221.689
229.476
224.59
224.778
220.521
222.217
220.224
216.469
221.562
220.746
216.55
220.744
219.569
220.282
219.937
225.07
227.226
220.861
219.204
222.065
219.346
224.944
222.397
222.059
220.084
221.191
218.007
222.452
221.69
221.309
220.707
221.884
220.08
225.399
221.524
220.487
216.335
218.001
220.769
217.383
221.784
220.768
233.442
221.218
214.237
225.057
221.639
219.953
224.472
222.47
240.325
227.745
220.725
227.067
221.773
226.159
220.974
218.657
219.499
220.43
223.292
219.402
227.203
219.99
221.599
230.361
220.092
221.08
221.204
218.072
221.552
218.206
221.03
224.105
222.621
223.728
219.079
221.453
221.552
224.83
223.656
220.012
230.982
221.924
221.579
222.504
220.426
221.774
222.599
220.985
230.977
219.989
224.876
221.226
221.932
219.174
224.528
221.186
227.848
222.39
231.445
219.376
219.83
220.18
220.496
225.161
220.339
222.228
215.165
217.588
217.849
218.505
220.838
220.278
223.318
221.211
220.446
219.098
220.91
220.07
217.405
220.268
217.816
220.536
217.203
221.521
222.532
221.192
221.002
218.679
220.739
223.773
221.431
220.729
229.625
217.777
217.976
220.763
219.981
230.1
220.208
222.234
227.243
217.224
226.618
224.596
222.285
220.884
219.015
226.804
223.933
216.67
220.926
219.171
219.673
221.672
216.475
219.899
220.34
223.739
224.446
221.087
221.883
221.755
228.998
220.577
219.535
220.323
220.311
221.652
220.866
219.186
221.529
218.898
220.433
224.598
216.827
220.396
220.823
225.015
220.446
234.614
219.099
218.794
221.477
221.798
222.385
224.773
226.864
218.157
218.44
218.273
219.648
221.264
218.558
223.387
224.426
220.742
223.321
222.376
223.184
221.116
221.177
228.909
220.178
227.971
220.395
220.717
222.695
222.805
221.068
221.388
216.708
220.13
223.486
222.256
220.618
235.335
228.232
227.001
220.43
221.127
224.469
224.614
219.845
224.401
218.769
223.411
235.386
221.467
220.62
214.016
221.133
223.88
218.022
227.907
223.937
226.875
221.379
219.303
217.549
221.402
223.584
227.041
221.948
225.788
217.763
230.69
220.931
222.145
220.619
220.852
219.846
220.477
221.688
220.325
221.596
220.384
218.789
218.895
218.669
219.731
221.459
230.729
220.832
223.327
238.149
224.134
222.89
239.908
220.471
224.818
221.675
219.724
218.589
221.916
221.28
221.178
219.537
225.324
223.957
228.19
221.758
221.414
219.809
218.472
239.428
221.718
220.963
227.542
220.076
219.554
220.174
218.311
228.37
225.366
221.476
221.193
222.895
220.007
221.671
220.902
222.393
220.523
223.394
220.761
220.853
213.599
220.582
224.467
216.261
219.898
219.295
226.855
220.501
233.588
223.64
222.961
221.032
223.088
221.474
221.297
228.79
216.458
218.975
226.776
220.569
222.278
222.528
220.315
219.936
215.797
221.215
226.549
217.676
226.893
220.365
219.032
226.356
220.937
223.497
218.555
225.341
220.881
217.605
224.913
218.562
232.846
220.098
223.472
221.283
219.823
236.577
223.697
213.791
222.7
221.642
222.441
218.998
220.367
220.336
226.152
225.62
226.148
220.148
221.643
221.479
221.439
228.632
221.166
217.496
221.228
217.803
217.585
215.699
239.923
221.744
220.649
221.796
225.717
223.301
224.17
224.732
221.108
225.892
217.056
221.572
220.154
221.64
227.273
220.088
219.982
224.004
218.966
217.932
220.649
220.116
221.664
220.238
221.454
218.393
220.79
220.65
236.22
222.193
221.588
229.893
221.804
223.633
219.846
221.118
220.332
221.284
221.018
224.915
222.122
224.158
221.994
220.566
221.279
216.532
220.445
220.071
220.576
217.024
221.476
220.9
225.208
220.169
221.859
223.222
221.235
223.361
224.779
220.928
221.951
230.311
220.249
222.734
219.618
222.398
231.284
223.855
227.749
219.552
224.888
224.226
221.388
223.372
222.149
219.002
223.329
237.204
222.896
222.441
221.315
224.168
221.065
219.478
221.811
218.055
231.213
220.028
219.468
230.14
229.628
220.616
226.643
219.263
230.647
220.208
221.075
219.916
228.176
224.868
222.139
215.521
219.029
221.932
221.739
221.615
221.132
222.427
220.081
219.307
225.219
221.796
218.579
238.216
218.503
220.831
220.981
219.343
226.629
220.973
221.022
222.774
227.117
222.377
220.681
222.344
220.362
220.764
219.552
229.339
220.232
217.655
220.443
223.037
220.152
221.264
223.365
229.904
220.924
227.428
219.18
220.916
221.252
225.26
221.929
221.832
221.385
236.985
224.008
220.193
222.161
228.905
220.562
219.281
221.145
221.211
220.617
219.905
229.856
221.446
221.039
220.715
221.475
220.144
225.375
216.035
221.899
226.746
215.481
221.588
222.017
218.415
223.69
221.142
215.183
221.936
233.294
222.457
219.024
219.718
220.976
217.441
220.93
222.868
223.027
221.761
220.933
224.664
222.819
221.418
220.445
221.524
220.3
221.855
221.416
225.316
221.152
220.818
233.525
216.301
222.586
229.824
219.255
225.725
220.078
224.897
220.777
229.793
227.112
221.817
219.711
223.683
220.367
231.424
221.4
220.956
220.347
221.04
218.729
219.634
223.702
219.941
226.228
227.221
224.411
218.899
221.231
218.277
231.429
220.258
220.349
217.449
229.135
221.279
220.474
224.294
221.123
221.378
220.193
218.499
224.78
226.639
218.086
223.85
220.433
222.071
224.031
230.184
214.137
220.765
220.054
222.102
224.982
222.576
221.44
224.764
221.09
221.345
217.167
218.4
217.843
220.984
218.412
221.472
220.852
218.643
221.247
219.942
223.097
219.842
221.013
222.899
219.857
224.947
219.718
221.911
233.702
221.083
220.393
227.76
224.926
221.325
228.922
234.173
220.588
221.655
218.892
221.792
217.561
223.895
233.768
219.599
227.295
226.905
218.825
220.185
216.601
227.651
221.667
220.245
221.573
221.038
219.094
220.843
220.279
226.454
225.369
222.569
219.297
223.862
219.062
222.897
220.115
220.707
222.483
220.542
220.728
220.934
225.155
219.931
224.729
221.233
221.74
226.77
220.529
216.658
225.756
220.517
218.428
220.251
218.085
220.295
221.363
220.983
221.424
225.234
216.384
217.296
220.174
219.201
221.402
222.284
220.979
219.427
217.271
220.208
222.759
219.63
220.825
221.295
220.432
221.36
219.929
221.726
220.882
217.962
219.481
225.332
213.628
216.815
222.848
214.289
220.36
221.402
220.916
221.399
220.633
222.726
227.594
221.005
229.164
220.669
219.565
221.467
219.047
217.585
221.919
221.199
219.984
217.647
222.795
221.405
217.572
222.412
219.506
220.17
225.648
220.08
221.319
220.577
219.782
223.641
222.234
215.82
219.456
218.762
226.439
223.188
221.226
220.589
220.727
221.572
215.008
234.09
223.78
220.219
220.603
215.817
220.333
221.009
223.873
223.569
220.462
222.101
220.856
233.098
221.584
221.16
224.224
221.877
225.119