# vtk DataFile Version 3.0
vtk output
ASCII
DATASET POLYDATA
POINTS 10000 float
-12.5735 -24.7006 5.32098
7.89278 -48.2305 11.89
-7.7375 -39.2432 10.1864
1.54869 -45.8236 14.916
12.6944 -50.0794 12.084
-3.46367 -40.0767 14.268
-11.7874 -30.7564 7.79722
24.3477 -48.9413 11.1263
16.3256 -49.4744 10.8325
-12.4057 -31.8094 7.60775
-10.4473 -33.898 7.19818
-13.0267 -31.7953 7.27286
0.447427 -44.7432 14.5529
7.26579 -49.1517 12.5897
4.81918 -46.5189 13.9436
15.249 -50.5821 10.046
-14.9812 -27.3105 4.72315
-0.552508 -44.3579 13.5218
16.6295 -50.3042 11.2313
16.9449 -47.7643 12.9528
-15.4845 -28.1634 4.44904
1.60861 -45.0966 14.7871
9.0042 -48.6971 12.6942
-15.8504 -22.1301 3.69885
-13.1574 -31.3981 8.86255
-15.5883 -25.3532 3.41156
-13.6308 -26.3282 4.57766
-0.0822393 -44.7178 15.156
-12.1028 -30.3034 7.66019
9.61905 -48.3998 12.5411
-17.2331 -24.9066 2.22454
13.6934 -47.0131 11.7671
-11.7539 -30.3492 6.44037
-13.1917 -26.6 5.54832
8.94135 -50.3129 9.15209
6.39954 -47.1128 12.6324
-10.9794 -35.4517 7.72776
11.4507 -50.5054 11.7309
15.515 -49.8461 10.423
1.58387 -44.2041 13.2467
-14.432 -28.0223 4.15727
-13.9164 -27.9022 4.72392
7.38174 -47.4127 12.7437
6.85421 -49.7415 9.68095
9.15181 -47.7742 12.2216
-2.27094 -45.9467 10.0233
-11.864 -33.794 7.18479
-1.72912 -46.5284 9.88531
19.1263 -48.0777 11.266
-15.6199 -24.5831 3.82382
11.4099 -47.3585 12.5942
-11.3138 -36.4568 8.73458
-13.0175 -30.4656 7.19631
-14.649 -25.877 4.34176
-1.59054 -43.4958 13.1847
-13.2686 -28.2454 6.0366
2.81845 -46.746 13.9814
-12.7317 -23.6387 4.51874
-12.084 -32.0891 8.25477
17.0426 -49.985 10.5938
-10.9625 -36.3095 9.24901
-12.4929 -34.5854 8.45333
-9.88661 -29.1524 7.08162
-5.84564 -42.1081 10.1185
-13.2223 -27.2564 6.13612
-10.5961 -25.4588 6.68491
-1.41492 -43.3399 15.6874
-10.6911 -36.3089 8.70827
-3.18959 -43.1022 17.98
1.45191 -45.3425 14.827
4.64837 -47.9864 13.6632
-11.5444 -30.5235 5.65072
4.57188 -46.993 12.6404
-11.5127 -29.9312 6.96983
-1.22345 -44.3584 14.469
-13.0589 -33.2773 4.9432
15.008 -48.7581 10.9992
-17.4915 -23.1521 2.94588
13.2689 -47.9993 11.1535
-15.5724 -26.8968 4.25176
-15.8839 -25.1723 3.68094
-14.0578 -27.8495 4.33625
-13.2489 -31.7059 6.71262
2.63746 -47.3309 13.0459
15.352 -50.1695 10.1495
1.01167 -45.2331 13.6981
-14.4645 -29.3916 7.42748
-4.90803 -43.7499 9.60633
-13.3286 -28.3478 4.88303
3.0632 -46.7896 14.463
-16.4031 -26.5964 3.87994
-11.4357 -32.0395 7.36951
5.37757 -46.9085 12.4618
-3.54571 -43.0667 19.2422
-12.083 -27.9511 6.38518
-13.9868 -28.9212 6.16774
-19.3138 -23.7079 2.76081
-11.8733 -34.5243 6.10766
5.9199 -49.1357 9.63503
-17.715 -21.0662 2.95077
-12.9262 -29.8322 6.61432
-11.2095 -27.8034 6.36037
-15.4305 -23.905 4.36769
9.80553 -49.1035 11.0507
-11.9001 -28.9268 6.47682
-14.0409 -29.1912 5.68986
0.662774 -44.3346 13.1946
2.84636 -48.1703 9.15028
7.44537 -47.7819 12.5745
9.68098 -46.682 12.21
-11.243 -33.7428 7.28609
17.0245 -48.2414 12.1226
15.4017 -49.1725 12.6199
12.0268 -49.6102 11.7995
-11.6509 -34.5043 8.40748
18.054 -50.4124 10.1179
-13.5873 -29.8962 4.82389
-6.71993 -38.6713 10.8513
-12.9847 -25.8358 4.71247
-12.1126 -33.0019 7.5801
1.15377 -44.7175 13.5899
2.00508 -46.7018 15.7066
-12.2934 -33.7756 7.53113
18.0571 -48.8793 12.75
-13.251 -28.4624 6.08508
-15.7617 -27.7116 4.44091
21.68 -51.3324 10.2645
-2.08082 -43.0747 14.1204
-11.9532 -28.315 6.26354
-11.61 -33.2618 8.65826
3.59489 -49.165 9.16953
-14.7412 -29.4806 4.94283
-12.3194 -26.8955 6.2077
10.4293 -48.441 12.4524
5.46668 -47.8852 10.7936
-13.6174 -31.1163 5.22414
-12.1682 -35.8523 9.13495
17.1818 -50.0005 11.3068
13.0586 -48.8418 11.7604
-11.1735 -32.1359 7.20396
6.13525 -46.3933 10.7467
-14.0409 -27.534 4.88715
2.19105 -43.537 13.0637
3.70264 -46.4815 17.0521
-11.7215 -35.2594 9.17931
1.33296 -44.4583 14.5329
-11.472 -30.8231 7.76169
-10.6133 -28.4233 6.48815
-16.5728 -21.4966 3.3085
-11.8872 -28.1161 5.64399
8.59468 -45.9291 12.8576
-15.882 -27.0924 4.29165
-16.2845 -30.6499 3.75092
-0.811977 -43.662 15.3071
26.5315 -50.0442 11.7972
-6.84092 -40.6601 10.0092
-16.056 -24.0317 0.781889
-3.51443 -44.4236 10.1391
2.75074 -46.4706 10.2789
20.9531 -50.4597 11.5094
-14.2884 -26.2013 4.28502
11.5727 -48.423 12.8462
-13.4536 -31.3819 5.48182
5.87343 -47.7472 12.1748
2.87648 -46.4226 14.6876
1.70663 -45.9452 15.0211
-10.5996 -29.62 6.48624
-13.3302 -25.4016 4.92671
-2.80053 -44.5342 10.2828
-12.6269 -28.7214 5.36961
-12.1184 -32.1447 7.27706
-8.19491 -41.3333 7.36114
1.27929 -46.4343 15.5327
4.19856 -47.8044 16.5187
-3.56452 -45.1655 10.3264
11.2958 -49.1491 11.8084
-12.4234 -32.2584 6.25118
-12.2827 -32.5508 6.35221
-12.7873 -30.3774 6.95484
-12.9782 -27.1869 5.34575
-11.3188 -36.8439 8.50045
-12.2355 -31.5304 5.92554
-11.1264 -32.5403 8.90992
-11.4297 -28.6181 6.98681
-12.7373 -33.9548 8.18606
10.1615 -48.5677 12.2366
-12.1251 -33.0378 8.01529
19.022 -49.9182 10.6658
6.99504 -47.77 12.1974
-5.86125 -42.5191 9.91885
-1.54961 -46.3002 9.54002
13.8395 -48.4173 10.4145
-2.59365 -46.3658 10.1239
20.382 -50.195 11.9961
5.01606 -48.3029 16.2823
-11.2664 -35.5628 7.7071
-2.04159 -47.4798 5.98074
1.77794 -45.4259 14.2747
1.8245 -45.7782 12.9652
-12.5168 -31.4976 7.83478
-10.6606 -32.9551 7.3724
4.35857 -46.9463 12.9275
-14.5342 -26.8849 4.09959
-14.8102 -32.1081 4.58649
13.5591 -49.007 12.8504
19.6456 -48.371 12.8811
-10.5969 -32.1974 7.33719
-12.2622 -31.2819 8.04493
-11.1585 -31.8972 7.78556
1.01415 -46.358 16.3204
-16.8915 -20.3104 3.02431
-15.4261 -26.4315 3.95054
-13.0845 -27.4702 4.9872
-10.7071 -34.8292 7.55283
-14.4652 -27.1819 5.06289
-12.4051 -26.8719 1.60933
-9.50007 -38.731 8.41931
-8.67758 -40.2176 9.42912
7.52427 -48.5639 12.3756
-15.39 -26.035 3.99334
16.6872 -50.7967 11.9412
15.3883 -50.8018 10.6642
-12.6281 -30.434 6.44029
-9.97379 -37.6079 7.51399
-12.1323 -35.2288 8.3228
-10.8623 -30.5586 7.55055
-18.3644 -24.4144 2.94983
-11.7904 -28.8876 7.21994
-11.4824 -35.3827 7.26102
4.79282 -48.1879 10.9082
6.34113 -46.9394 13.0171
-11.3169 -35.7921 9.08414
-12.2118 -32.8599 8.20582
-12.5149 -32.2415 6.39285
-14.0691 -27.3926 5.13403
-11.9055 -26.3498 4.41552
-10.7423 -36.0459 8.10735
8.56643 -50.4759 12.3191
-12.9649 -31.1651 6.05887
-13.2832 -27.8594 5.45181
8.53459 -48.2938 9.9078
11.3752 -51.0199 10.9545
-9.58868 -30.7573 7.53258
15.2715 -48.2412 12.0367
6.46274 -49.0716 9.82762
-14.6832 -31.0276 4.64592
-12.6077 -28.568 5.70709
13.5066 -49.541 9.75182
-19.8044 -22.5176 2.75922
-11.0937 -34.1943 8.24066
-11.1673 -36.7512 8.23133
-13.5779 -25.7016 4.30383
2.21034 -47.754 10.1147
13.3156 -49.7035 11.9568
-15.154 -28.826 3.95318
-18.0258 -22.4564 3.03406
-13.7213 -28.9928 5.75891
-0.859579 -44.6334 13.4827
0.0481492 -44.8829 16.2182
-11.2021 -33.5245 7.02575
-12.8237 -30.5089 6.04773
-11.7006 -34.3389 7.56152
-13.6336 -33.276 5.1
-0.716691 -44.193 13.6977
-0.0252192 -44.8656 10.5
-10.5974 -36.1385 9.2865
-15.4573 -23.3138 3.63664
3.76567 -47.1854 12.8793
-14.9237 -29.0269 4.626
-12.1517 -25.582 6.08564
-13.994 -22.9232 4.49738
0.224634 -43.804 13.751
-10.1628 -27.552 6.95385
7.84429 -47.5971 12.7562
0.770737 -43.6539 13.1509
-9.82868 -37.308 7.57436
-12.3637 -27.7205 5.89192
12.6048 -48.1681 12.1975
-17.6101 -24.2346 2.84153
-13.0306 -28.9479 4.83271
-12.8367 -32.1189 7.9522
-17.3217 -24.2709 2.9664
-13.8764 -29.3307 5.13921
-3.18074 -42.9876 18.59
-9.93099 -37.8743 8.37147
12.8637 -49.2566 10.6967
-1.15861 -44.9147 14.0811
13.2736 -49.915 10.6976
-12.9633 -25.3203 4.78753
11.305 -49.3792 10.7366
-11.5943 -33.7974 7.68627
-12.2676 -27.3863 3.13621
21.0405 -50.8543 10.2984
0.995539 -45.7701 14.105
-10.9842 -34.9223 7.95905
-14.3375 -27.7191 4.68857
-12.5213 -29.4503 7.10506
-14.8773 -24.3409 3.9694
-9.76809 -35.9708 7.87912
1.1247 -46.4023 10.0303
-13.6504 -34.483 4.94137
1.82786 -44.8169 13.036
18.5347 -49.524 11.9026
-1.44008 -43.4731 14.8126
5.02243 -45.4953 13.0503
-1.96927 -43.3369 13.787
30.8669 -50.7129 10.547
-11.2236 -34.7017 8.16981
13.7949 -49.3577 12.7101
-12.9999 -32.3534 5.73591
-17.1763 -24.2816 3.43521
4.18552 -47.0891 14.3935
5.86362 -48.5336 13.8699
-2.58963 -41.4966 11.9491
-13.7192 -31.6967 8.27673
-3.5462 -45.2113 9.58454
15.2187 -48.4545 12.3399
3.7723 -46.3712 13.194
-14.4978 -25.2987 4.00425
-9.7879 -37.6008 9.05543
-11.6846 -32.3829 5.75804
8.37775 -47.38 12.4476
18.0306 -50.0226 11.8927
2.83641 -46.4369 14.2775
-11.6967 -29.8147 7.49019
-11.9508 -35.6113 8.73551
-13.9725 -26.9736 4.43261
-11.5957 -36.217 8.55639
-16.2329 -25.9758 2.36508
-19.4745 -26.4324 3.07061
1.59416 -45.6576 17.2005
1.71546 -45.773 14.7107
20.0493 -51.3131 11.2759
-18.187 -22.1328 3.06304
-12.5688 -35.032 8.62406
-11.7108 -34.3461 6.66073
-0.788074 -43.9811 13.3184
-11.7678 -29.4594 6.66237
-13.3593 -30.4846 6.21432
11.1749 -47.9454 12.0897
-13.0986 -30.8988 7.46178
-12.5726 -28.9021 5.80001
6.88603 -46.2179 13.1913
-8.8218 -38.3999 9.26672
-0.677508 -45.0426 13.433
-12.5792 -33.3713 6.81303
2.08204 -46.8929 16.4203
-0.393068 -43.0156 14.1498
5.63033 -44.8389 13.2937
-11.1484 -28.6703 7.19404
-10.4164 -27.3375 6.80803
-9.29342 -37.1857 9.32055
-14.6872 -29.911 4.71403
9.89922 -49.5625 10.5241
12.5714 -48.8777 12.1955
-13.3396 -28.3415 5.33888
-10.6646 -28.7638 7.32308
-12.0288 -30.5792 7.22513
-13.4396 -28.0063 5.53806
-12.545 -29.3956 6.15767
-10.5534 -33.4212 8.02705
1.5331 -35.7193 27.4895
-12.1912 -32.542 7.95322
-0.461585 -44.7128 15.8175
-9.76477 -40.1937 5.91413
-12.1808 -26.1549 0.388066
3.82777 -46.8965 15.5753
-1.32687 -46.262 10.3484
-12.6296 -28.4785 5.79484
5.19133 -47.3249 14.4329
6.54305 -47.1637 10.8812
6.18321 -46.0141 12.8836
-12.722 -25.4954 5.23762
19.0226 -50.7993 11.4298
-13.4254 -30.0685 5.66275
0.747417 -44.6633 17.7748
-10.7687 -33.7673 6.91058
5.99283 -49.0883 12.4558
1.34048 -45.5834 15.3684
7.60981 -46.1421 13.6129
22.2996 -48.7918 11.5725
-12.0936 -28.9255 5.87169
3.50407 -47.4106 15.1021
-11.8295 -31.1402 6.39145
-3.3512 -42.8768 18.2169
-0.095805 -43.7293 14.681
18.5831 -48.6481 12.2635
-12.7361 -28.0369 5.90898
-7.50473 -41.4119 9.5924
-14.7605 -26.7282 3.90499
4.60588 -46.2068 12.9563
[...]
POINT_DATA 10000
SCALARS t float 1
LOOKUP_TABLE default
254.85
209.776
214.418
212.785
211.922
214.399
232.731
211.194
212.71
233.77
237.311
236.176
213.353
212.254
212.203
215.643
257.89
213.417
211.888
210.883
259.742
213.029
211.901
269.443
224.347
268.382
259.596
213.096
233.717
211.211
275.926
208.125
243.327
251.836
219.177
210.905
232.599
211.385
214.405
212.606
261.976
257.718
211.22
216.645
209.672
214.231
236.994
214.861
210.43
266.273
210.21
224.133
236.935
261.56
213.375
247.185
212.557
262.242
228.844
213.789
220.535
226.562
239.674
214.159
246.992
244.84
212.952
224.614
212.055
212.971
212.332
249.535
211.291
239.372
213.66
254.483
211.702
273.757
210.577
261.845
266.878
260.721
240.572
212.686
215.464
213.148
235.158
217.042
256.3
212.419
264.944
235.949
210.389
211.573
244.989
245.605
275.471
245.276
216.937
275.486
241.765
245.486
262.892
211.63
243.729
249.287
212.863
219.447
211.059
208.27
236.413
209.815
212.147
211.004
227.29
215.76
256.046
211.51
258.847
233.923
213.067
211.869
234.129
211.497
246.695
260.045
215.265
213.821
245.711
225.674
218.86
255.209
246.876
210.945
211.837
252.611
221.15
211.678
210.147
237.307
211.433
256.556
211.849
210.494
221.155
213.156
233.12
244.317
272.607
250.588
210.258
261.491
264.007
213.181
209.719
215.045
284.511
213.916
213.414
211.542
261.865
211.789
250.489
210.184
212.5
212.687
243.589
257.288
213.142
252.328
236.417
232.95
212.202
210.446
212.899
210.464
244.372
243.572
238.941
253.191
225.738
247.088
224.173
240.241
228.702
210.479
230.485
213.515
210.035
215.256
217.109
214.117
213.548
211.519
210.521
232.59
240.671
212.985
212.525
232.013
236.061
212.057
262.917
257.268
212.293
210.896
236.474
230.537
232.885
211.37
275.33
264.282
255.911
234.371
255.231
278.378
226.104
218.698
211.196
264.141
211.807
213.3
243.075
233.239
227.534
235.027
273.264
238.16
236.124
211.566
211.765
221.78
229.003
243.245
254.617
260.979
229.396
212.344
245.944
251.975
216.091
212.15
235.652
209.739
216.092
257.099
249.726
217.247
276.614
228.915
227.894
262.005
214.066
211.275
263.094
274.065
248.889
213.475
211.836
238.465
246.152
234.021
253.22
213.498
211.942
220.417
268.663
212.187
257.913
248.564
262.998
213.308
241.67
211.303
212.599
233.052
248.783
209.962
273.549
256.446
230.852
272.662
253.748
211.858
226.703
213.051
213.627
213.307
258.486
212.899
233.154
268.989
215.113
213.079
231.054
258.045
238.321
265.368
231.589
214.538
254.219
212.398
210.983
213.685
211.61
213.725
213.726
229.327
212.499
248.354
269.693
212.193
212.147
210.071
228.111
216.996
210.667
212.353
264.349
221.818
248.369
210.11
211.528
212.558
235.388
224.233
260.417
225.484
274.366
271.98
211.081
212.858
212.234
274.213
225.08
241.04
213.342
242.004
244.69
209.416
234.765
248.834
211.591
220.277
213.456
239.76
211.023
213.526
211.691
238.75
242.769
220.142
256.861
213.671
210.819
252.648
237.894
237.062
251.194
245.755
230.982
214.592
231.037
212.42
243.995
287.52
211.746
212.617
249.084
212.029
211.164
211.062
254.891
211.841
249.206
211.457
239.434
212.035
212.549
211.713
210
248.352
212.04
243.578
212.03
213.446
210.36
248.402
217.393
264.387
211.813
206.681
230.921
242.213
220.593
210.816
212.13
249.737
210.584
213.742
212.491
255.633
254.1
234.555
274.988
211.052
253.132
265.082
215.056
211.988
221.563
210.086
277
210.697
223.334
245.843
228.754
239.771
212.595
234.147
243.88
220.325
252.538
213.337
274.789
240.093
254.917
238.159
271.988
212.091
256.325
261.923
228.821
216.536
217.782
259.835
238.708
254.085
211.894
249.566
213.546
228.142
262.415
210.716
215.358
238.088
235.862
211.479
259.202
213.312
237.101
232.029
212.273
252.924
270.429
209.969
234.648
208.082
212.215
209.141
233.276
263.665
211.672
260.83
273.091
272.439
218.591
208.852
212.652
213.969
245.916
218.111
215.53
221.212
241.97
256.741
229.488
211.055
242.229
286.796
211.602
231.229
212.297
225.347
212.909
267.258
254.917
209.563
212.528
243.654
253.503
240.529
253.773
212.139
243.222
212.365
212.247
261.403
254.489
255.002
271.127
211.881
225.67
239.731
210.018
214.197
211.695
210.727
270.63
212.285
212.525
262.44
212.933
255.763
260.776
260.507
212.516
237.657
212.524
209.85
210.832
228.746
267.46
212.396
258.048
211.954
212.861
216.575
268.925
225.54
212.367
232.594
243.458
257.89
212.858
211.681
267.83
214.526
252.539
220
261.308
222.217
211.506
250.559
239.915
210.593
250.43
225.943
255.626
224.367
264.882
248.829
266.632
212.232
259.294
253.362
212.826
250.987
209.904
210.679
216.271
210.072
215.037
212.988
210.069
252.323
232.8
251.38
212.159
220.862
238.582
282.725
213.075
238.413
208.87
212.8
211.216
214.485
233.798
210.501
250.189
213.23
210.288
235.811
210.886
260.607
257.599
236.82
259.607
249.958
281.297
212.004
210.691
213.848
257.243
226.533
216.622
275.666
251.111
212.164
261.769
210.029
218.415
238.893
210.032
242.435
232.632
254.723
215.033
215.693
211.139
212.941
212.024
240.903
232.069
211.214
212.865
236.224
215.606
218.01
239.539
211.409
215.689
232.428
210.845
212.981
247.06
212.154
261.276
275.481
255.613
230.496
230.336
213.952
213.43
262.095
235.21
253.201
212.568
236.944
212.256
226.889
223.993
211.755
253.397
236.545
256.006
211.179
208.775
213.269
213.151
212.588
273.198
241.145
259.396
243.394
250.723
279.318
236.098
249.66
211.841
235.765
268.349
230.766
216.845
221.976
231.254
232.593
211.616
211.712
238.685
212.282
238.726
241.084
212.099
210.34
212.69
210.786
211.479
210.432
209.847
211.848
264.394
213.889
236.723
266.488
211.581
212.991
254.042
287.79
211.508
215.449
210.958
267.225
216.348
239.295
233.464
245.742
233.302
221.622
236.913
210.612
243.332
227.858
211.736
271.889
213.006
213.213
213.753
264.558
275.063
210.994
261.975
211.519
258.735
251.584
210.697
233.964
213.281
212.561
230.395
210
211.833
210.601
236.957
241.257
260.509
214.216
214.014
242.866
214.058
233.995
211.233
261.146
263.107
236.103
210.325
242.976
210.707
242.545
247.293
287.964
264.391
253.067
241.851
214.715
228.678
239.704
212.751
212.03
222.654
212.343
209.747
237.497
209.77
250.212
255.849
247.576
212.294
215.227
256.283
249.853
268.728
227.205
243.837
258.726
248.516
254.515
217.047
238.261
254.868
220.731
210.901
211.012
243.946
212.7
269.467
257.746
210.098
232.012
265.381
211.331
235.264
210.248
234.711
250.893
258.478
237.008
214.468
213.616
218.737
229.606
251.057
232.712
221.626
256.058
220.089
266.892
273.779
231.316
210.356
256.591
214.699
211.892
212.47
216.816
222.892
251.071
215.908
209.723
240.367
212.315
236.426
211.641
213.171
282.281
259.531
259.192
269.823
262.476
274.557
211.406
259.462
244.497
249.731
257.255
210.934
230.978
228.19
211.656
245.312
212.187
212.909
212.273
276.887
263.885
211.551
232.605
217.828
213.328
268.717
210.663
265.572
243.487
233.728
211.9
248.663
278.705
214.712
212.102
209.11
230.771
249.306
239.276
214.985
210.834
217.521
212.566
220.421
231.056
253.357
264.571
213.108
210.313
230.34
213.08
254.073
244.753
213.384
277.448
215.219
212.108
209.707
209.971
285.003
236.179
215.298
212.595
210.617
243.041
212.377
236.547
260.507
219.699
213.793
252.242
212.495
235.378
211.86
211.52
283.264
257.052
211.573
212.514
244.437
244.589
210.119
234.582
263.46
239.777
248.507
215.398
210.496
245.247
213.767
238.687
212.963
243.554
210.515
212.584
212.004
240.411
211.513
213.977
210.396
269.164
244.581
210.775
211.733
213.403
216.781
211.509
233.957
260.27
214.707
221.934
214.524
231.26
212.461
212.348
246.994
226.16
211.825
280.034
212.99
264.251
212.716
246.498
236.816
259.347
212.414
272.629
210.545
212.578
247.672
234.831
246.37
212.422
217.326
230.738
210.999
210.321
238.398
232.52
272.576
265.882
211.467
256.609
211.751
211.31
247.991
233.605
207.538
222.798
268.832
259.093
211.734
210.18
210.528
211.672
257.98
211.776
258.668
212.818
233.072
259.098
219.709
211.026
244.06
213.579
211.698
212.711
242.574
213.292
211.921
212.361
227.834
226.369
257.469
211.078
213.2
212.132
267.256
264.571
212.991
245.065
240.975
210.923
212.376
245.089
213.471
212.877
212.298
212.419
266.743
236.255
230.595
247.826
212.667
242.94
211.915
214.594
252.109
271.339
254.659
211.336
210.711
212.195
244.499
274.705
256.843
235.158
213.775
215.969
232.458
210.926
226.202
210.705
212.534
219.906
253.479
212.152
224.911
232.701
245.85
291.126
213.237
209.812
251.756
279.403
231.595
272.001
258.491
257.538
253.347
283.533
240.911
225.008
255.632
212.408
212.748
248.023
233.214
244.843
269.327
257.746
231.61
228.101
256.331
210.254
212.476
219.167
252.142
235.355
213.667
212.637
210.37
252.273
212.098
238.229
256.773
212.248
239.881
238.818
212.584
210.416
270.757
253.301
272.079
210.063
213.97
226.131
230.994
242.599
263.451
245.24
216.771
243.557
211.82
223.302
258.791
265.363
212.786
272.33
262.983
212.224
248.576
244.305
212.582
212.136
235.423
208.757
261.757
213.124
257.874
212.55
266.93
279.404
233.796
271.338
210.106
212.007
266.284
269.6
211.635
211.204
253.961
214.16
244.001
211.471
239.589
235.706
233.627
212.576
283.397
221.304
264.925
213.921
210.957
213.502
214.87
250.84
212.435
213.185
210.575
252.369
239.055
261.291
238.907
229.467
291.283
212.639
212.298
210.63
261.494
220.065
212.327
235.893
234.415
211.198
220.64
212.253
236.64
212.635
216.483
211.7
226.901
229.724
210.558
213.185
245.729
231.352
237.707
252.852
272.034
229.858
255.409
211.966
246.868
212.51
254.427
231.489
247.876
259.504
254.925
250.359
264.658
236.429
276.213
257.38
255.444
211.666
211.644
209.301
210.647
234.908
209.89
241.185
280.917
229.224
211.545
224.543
257.784
211.887
211.081
209.869
242.822
217.549
260.248
213.396
210.44
211.348
234.411
230.255
257.082
212.403
242.855
234.183
208.652
253.506
250.712
257.556
234.445
212.45
259.199
247.513
221.818
213.577
209.297
219.889
238.681
213.525
259.164
214.634
212.349
240.649
212.692
237.761
248.929
262.569
230.618
211.996
235.189
265.998
262.557
212.177
215.324
230.891
277.312
211.96
211.273
258.224
255.849
224.151
251.929
219.116
238.504
215.04
279.343
231.642
254.168
211.278
226.913
252.815
211.319
212.897
279.741
236.924
210.904
213.285
213.318
210.469
270.901
246.387
213.427
212.638
212.912
224.66
216.605
211.909
212.602
274.28
222.775
249.615
215.41
213.308
270.949
212.408
215.026
211.679
212.342
213.275
247.644
251.895
214.411
230.834
211.263
210.943
212.555
256.33
239.595
212.786
211.751
257.449
256.333
212.406
235.748
254.732
212.598
212.461
236.432
246.165
234.511
263.972
219.974
235.563
210.435
247.925
241.305
275.736
210.478
212.936
271.194
210.915
241.302
218.945
210.332
210.522
210.396
278.243
216.422
233.982
213.037
226.556
265.812
255.906
275.753
270.712
213.848
213.945
209.595
212.816
248.293
235.404
247.337
261.815
211.267
251.336
211.806
233.743
233.504
230.232
221.394
209.525
212.689
239.23
219.087
210.232
212.075
234.508
212.667
234.416
209.071
246.2
213.003
231.059
255.922
223.972
215.93
218.5
242.553
256.118
228.876
211.694
264.903
213.211
239.356
212.495
260.898
218.256
236.243
210.888
212.237
212.084
216.59
248.622
236.25
212.327
209.842
218.923
218.028
242.947
225.446
212.016
213.114
238.015
233.248
260.687
213.313
255.329
227.517
232.419
231.076
242.521
235.87
257.69
241.54
229.368
212.621
233.632
243.948
275.269
222.214
259.513
265.447
212.041
216.999
264.413
249.455
243.587
211.203
246.086
256.057
212.192
254.888
213.302
263.091
242.298
258.282
213.205
209.685
211.029
261.01
210.753
239.536
212.205
210.287
213.68
213.187
271.866
238.378
211.473
212.236
214.562
230.049
258.781
266.38
211.422
211.05
237.339
237.336
245.251
233.974
213.129
210.999
210.865
245.291
212.511
227.433
249.935
239.392
212.926
210.622
258.625
259.23
213.554
213.039
288.489
214.211
263.519
210.374
270.616
250.039
210.193
247.503
286.624
239.414
217.72
252.764
212.043
224.794
263.543
234.3
212.196
213.369
257.651
210.248
264.882
247.606
211.762
273.001
245.852
210.535
212.432
212.262
210.977
218.658
241.808
212.538
253.026
218.774
229.328
212.208
255.161
209.439
246.668
209.116
276.955
228.209
212.533
218.358
209.586
282.201
267.619
212.613
211.868
239.374
249.244
240.028
215.371
211.343
236.797
222.229
262.181
260.459
212.796
213.049
211.995
243.513
219.309
275.672
215.184
244.36
241.41
240.184
235.534
240.794
214.124
268.742
211.531
253.58
231.991
212.797
216.773
228.859
264.536
238.976
271.15
256.06
228.104
210.52
215.996
270.067
246.351
224.096
238.2
208.846
241.622
240.724
212.276
247.615
251.884
234.222
237.219
211.285
241.06
263.683
258.836
212.513
221.434
211.147
208.61
226.744
213.34
252.644
225.419
209.242
262.57
250.779
215.186
260.575
213.472
239.025
253.124
212.349
270.44
237.358
211.541
213.12
226.485
210.374
251.615
246.279
210.212
243.224
210.693
269.836
213.082
212.324
259.867
261.629
212.098
255.255
248.729
211.611
276.486
242.774
211.623
247.424
211.67
210.418
237.689
222.342
209.416
235.101
210.625
230.13
232.362
227.452
269.543
234.569
260.051
244.113
254.884
242.997
211.567
248.349
242.45
249.474
229.386
220.901
220.514
261.886
257.368
249.335
212.434
255.34
262.526
242.466
236.829
243.11
212.56
209.637
211.242
211.384
216.794
237.143
243.141
212.798
212.897
212.335
258.063
237.451
217.666
239.098
214.313
254.278
233.556
244.781
210.532
219.59
245.174
217.295
234.587
231.464
254.632
211.343
212.257
227.739
232.625
210.393
285.38
239.153
211.683
212.254
264.185
244.945
237.179
211.464
227.63
225.246
246.104
276.678
235.587
213.427
211.506
262.245
211.246
208.988
212.818
260.71
261.281
266.913
231.365
227.571
209.672
227.353
223.498
218.966
258.534
255.912
232.348
264.91
240.539
212.8
231.393
238.389
211.845
247.399
247.613
216.58
268.261
262.941
270.831
213.478
213.688
215.605
211.947
211.573
242.563
212.526
232.288
210.823
212.29
236.853
212.773
208.716
258.38
237.725
255.563
248.691
226.055
258.998
211.566
238.308
213.612
278.266
209.913
274.237
241.037
247.14
244.552
260.057
213.553
244.639
216.415
233.829
231.216
216.296
241.93
213.722
212.502
263.807
274.378
239.958
213.678
213.837
212.234
264.936
260.756
246.707
213.934
244.306
217.281
233.812
208.126
211.81
216.91
211.739
232.939
229.314
210.585
215.766
211.129
257.111
213.607
251.695
211.59
225.282
272.598
208.958
211.109
261.42
212.017
209.913
254.237
231.367
278.185
271.665
214.511
245.769
211.006
261.155
227.152
238.376
216.603
209.736
259.463
215.976
243.471
213.225
212.79
276.096
260.799
242.955
211.657
212.298
209.246
211.949
272.08
238.883
229.346
267.052
244.269
212.057
212.201
256.447
251.109
212.514
270.779
232.45
213.491
246.862
210.609
210.773
259.57
236.711
243.931
213.38
238.868
216.684
213.698
245.749
242.854
255.215
284.474
234.402
292.154
212.338
212.51
239.525
261.745
260.673
241.887
261.517
214.731
212.586
248.495
249.865
230.757
213.892
250.838
211.015
212.123
226.015
212.721
260.715
211.942
230.667
248.074
213.4
212.089
211.603
231.419
214.178
210.43
249.08
235.617
264.016
210.619
249.791
259.559
228.598
212.499
213.372
224.057
259.239
232.96
215.825
269.235
240.324
255.254
213.265
237.595
229.926
246.657
240.098
238.384
210.755
210.888
231.057
214.449
211.42
211.333
214.755
232.238
257.826
229.608
255.705
221.053
214.739
276.166
216.036
234.022
214.547
250.969
211.778
239.921
221.228
210.562
238.548
210.793
280.147
211.687
213.464
232.353
260.53
210.447
272.062
212.395
231.88
212.065
213.921
261.56
254.263
228.74
233.265
228.567
242.301
213.128
210.931
251.281
261.122
258.237
235.505
250.988
244.856
240.958
259.189
216.494
237.214
234.885
248.891
248.941
209.248
235.444
227.547
214.185
212.34
238.415
243.242
230.205
225.282
217.336
235.037
275.299
263.64
213.596
219.034
254.311
272.494
207.828
256.76
216.752
265.435
271.277
274.369
252.584
211.098
210.985
239.148
213.119
238.829
234.711
266.214
208.87
244.347
212.83
210.942
264.298
243.251
224.66
235.911
212.794
247.272
228.322
230.006
213.698
211.908
215.384
232.878
226.941
213.073
260.496
213.647
249.377
213.603
212.735
238.08
210.902
255.59
210.141
258.606
277.399
263.006
265.761
279.25
215.016
222.897
212.372
255.587
247.379
221.18
212.56
209.409
236.343
237.571
256.968
261.925
239.858
223.568
212.91
212.127
275.935
209.328
221.388
266.623
209.203
211.09
246.27
234.851
287.608
254.297
250.941
211.307
268.4
236.251
240.056
242.431
238.3
212.405
257.947
214.188
211.529
213.936
231.824
231.931
213.078
212.349
211.337
257.052
211.297
276.337
246.521
258.181
212.431
244.22
236.303
230.644
233.264
240.646
212.827
262.013
211.079
214.99
260.346
243.152
212.776
214.391
212.782
266.031
246.833
215.343
211.493
212.617
246.496
212.937
271.218
212.768
252.428
210.447
238.189
247.948
224.757
287.223
260.569
238.53
210.67
213.576
273.098
240.698
213.65
226.193
211.871
257.719
211.84
249.546
212.885
217.61
233.899
273.795
213.256
209.526
210.097
212.561
254.261
211.798
236.926
262.313
211.217
225.017
231.75
283.793
211.667
210.911
236.915
266.843
237.086
235.799
256.215
210.683
251.746
227.255
228.869
214.494
210.344
273.843
211.561
211.939
248.386
243.524
224.347
251.97
224.573
210.558
213.283
212.469
235.549
210.933
210.899
266.223
247.55
230.517
276.844
217.207
243.49
211.706
210.316
215.009
211.535
217.519
234.541
242.363
248.391
210.394
214.219
214.761
227.42
259.905
210.503
213.073
236.371
211.395
234.947
260.697
217.16
212.038
250.184
208.291
263.594
230.056
214.096
210.652
256.217
213.173
257.085
212.96
286.855
278.735
215.834
251.516
233.734
240.479
257.671
210.768
255.307
242.03
207.853
267.332
261.654
238.301
259.83
212.356
245.157
213.72
210.521
211.944
228.646
269.883
214.264
211.607
265.374
256.785
222.208
262.658
212.075
243.586
213.29
229.212
223.809
255.591
259.86
238.939
211.154
240.02
248.25
209.986
218.859
212.025
235.498
219.207
246.58
246.335
244.563
237.266
276.004
243.53
209.103
211.237
219.328
244.919
211.458
236.949
231.575
254.313
259.851
213.45
242.994
210.928
212.921
238.021
273.82
246.502
256.297
255.675
243.37
214.185
213.592
237.1
256.707
215.729
234.7
211.999
213.204
213.441
254.894
208.808
231.292
210.706
275.971
259.495
212.743
237.172
257.18
223.489
212.197
212.351
209.668
214.274
238.878
238.434
236.824
212.938
240.9
260.907
245.551
265.663
236.999
211.729
261.679
211.529
233.436
242.419
212.863
244.159
259.152
212.037
207.539
278.337
245.6
211.351
212.405
216.01
250.29
222.371
239.718
256.221
210.266
214.718
248.077
247.367
211.182
216.997
211.963
211.411
208.951
211.716
262.024
246.279
212.566
246.054
240.821
252.606
270.454
211.968
251.063
214.148
260.95
232.195
275.813
286.921
211.193
237.119
256.191
212.46
252.24
208.627
247.683
238.508
210.655
226.31
210.212
238
212.702
256.987
261.833
258.31
213.698
238.035
258.203
269.509
213.615
217.925
254.445
278.013
211.84
236.061
242.192
215.789
210.566
209.054
218.507
235.433
285.059
213.918
252.431
213.759
291.118
237.777
258.166
212.278
229.429
212.918
241.974
263.225
236.948
213.794
244.825
234.13
220.733
248.273
253.053
211.231
212.78
212.95
214.29
240.057
253.787
214.793
217.127
259.477
248.657
210.096
238.521
212.864
262.362
213.002
219.026
290.425
264.695
208.154
253.911
235.128
212.267
265.766
266.542
209.445
212.017
212.953
249.255
214.739
237.709
270.176
212.539
233.379
258.868
212.808
216.064
226.399
266.695
229.482
247.928
236.839
217.533
212.304
254.147
210.016
240.498
244.02
233.302
212.728
237.367
211.886
250.86
256.9
212.774
277.734
213.536
210.376
243.167
238.732
214.298
233.173
218.616
211.532
265.459
217.85
225.905
265.769
213.645
238.353
215.531
212.655
238.176
210.933
212.377
209.306
256.309
210.879
232.124
212.972
214.634
255.362
248.874
212.854
212.416
212.21
220.616
234.104
236.441
215.298
230.037
212.839
212.495
213.101
220.756
209.348
242.632
229.33
234.619
211.945
213.549
260.886
212.164
212.524
251.073
210.273
210.618
256.642
251.566
233.347
219.397
262.485
211.571
257.377
212.148
211.983
236.327
213.07
213.134
211.624
234.434
242.077
211.888
226.408
215.268
258.955
213.24
229.457
210.798
239.891
212.046
236.621
243.432
254.835
215.543
243.415
241.482
268.616
231.41
211.608
220.251
235.99
210.703
238.774
275.763
239.119
212.045
210.608
226.243
217.648
214.371
253.935
265.729
244.376
254.094
219.646
272.772
211.309
213.478
260.318
250.081
215.083
209.403
243.736
228.674
209.715
219.304
243.632
214.013