# vtk DataFile Version 3.0
vtk output
ASCII
DATASET POLYDATA
POINTS 10000 float
-24.5399 -28.8486 6.40038
-20.0339 -33.3198 11.2233
-21.1787 -29.9106 8.69689
-22.2152 -36.7482 14.5376
-18.5784 -33.6254 10.9553
-22.1669 -34.9991 13.5449
-22.2437 -27.9447 7.08345
-14.8083 -32.4916 10.8867
-17.5033 -30.4421 10.0874
-21.7264 -29.4617 8.14897
-22.4028 -29.4502 7.06664
-21.8822 -30.2781 8.18611
-22.2041 -36.9854 13.9985
-20.092 -36.4173 11.4331
-20.5833 -37.2283 13.2115
-18.5203 -33.6798 9.73582
-23.1228 -32.4192 7.35751
-21.281 -35.7907 13.2336
-17.9957 -32.8586 10.3334
-15.8382 -32.6804 11.5975
-23.5434 -35.9043 6.97908
-21.5433 -36.6676 14.0704
-19.1325 -33.192 11.6965
-26.0663 -29.0969 6.18067
-21.9542 -30.1345 8.79682
-24.2417 -29.3465 5.76601
-23.63 -31.9406 6.87447
-23.287 -37.1021 14.7172
-23.2432 -29.3836 7.53361
-18.9048 -33.3036 11.8358
-25.474 -31.649 6.24805
-16.0216 -28.4232 10.2134
-22.2937 -29.1316 6.95872
-24.0343 -29.2323 7.21804
-18.606 -32.7523 9.22603
-20.0895 -33.4124 11.8966
-20.5397 -30.275 8.16121
-19.6337 -35.0005 11.0349
-18.5067 -33.3538 10.0324
-20.4116 -33.7256 12.2758
-22.8108 -33.3353 6.90228
-23.2991 -31.6237 6.98063
-19.3535 -33.5755 11.1383
-19.8942 -32.5015 9.81012
-19.0488 -31.8726 10.5169
-20.1718 -30.9926 9.36237
-21.032 -29.9823 8.17773
-20.7175 -31.5943 9.40277
-17.1217 -33.9124 10.6044
-24.3983 -31.9198 6.45127
-17.7582 -33.0035 11.7512
-22.2415 -32.1955 9.01464
-22.463 -30.1046 8.15256
-23.9151 -31.6375 7.00393
-21.3993 -34.7284 12.3708
-23.185 -31.6922 7.60505
-21.1754 -37.7269 13.3219
-24.6381 -28.4358 5.95453
-21.7533 -31.2895 8.61425
-17.344 -32.901 10.3616
-21.9154 -30.2287 8.80163
-21.3704 -30.4458 8.73771
-24.0141 -27.1005 6.46847
-20.2678 -30.2359 9.3209
-22.4335 -29.1315 7.37403
-24.3272 -28.9388 6.94318
-23.3537 -36.1757 15.1794
-20.6353 -29.6321 8.40278
-28.2907 -38.3215 17.8543
-22.5531 -37.1368 14.3018
-21.1828 -37.6502 12.9103
-22.9151 -29.454 6.4141
-20.4941 -34.8425 11.9435
-22.3981 -29.3253 7.25969
-22.4205 -36.3333 13.8174
-21.9152 -36.2749 7.21438
-18.0785 -32.6819 10.5905
-25.3678 -31.1152 6.02473
-18.7126 -31.4021 10.8187
-23.9869 -34.0622 6.83079
-24.4949 -31.8365 6.30656
-23.5569 -33.8504 6.54872
-22.4544 -31.062 8.36515
-21.0057 -35.5971 12.161
-18.0036 -32.1125 9.75634
-21.246 -35.2496 13.0486
-22.2036 -30.9007 8.81922
-20.7336 -31.6859 8.81592
-23.0679 -31.4014 6.99431
-21.612 -37.9305 13.666
-24.9041 -32.3687 6.5604
-22.3103 -28.6788 7.49006
-19.1029 -31.9596 10.8912
-29.9903 -39.1146 19.1093
-23.6034 -30.3062 7.67999
-22.0924 -29.5854 8.06171
-25.3926 -31.9777 5.74848
-21.4178 -35.7233 7.79633
-18.704 -32.2333 9.16312
-26.0801 -30.1419 5.87668
-22.4075 -30.4696 7.60254
-23.049 -29.6558 7.35067
-25.7222 -30.7305 6.76138
-18.76 -32.0852 10.1232
-23.1344 -31.2532 7.52956
-22.9365 -32.1511 7.66985
-20.4502 -34.9396 12.5211
-19.073 -31.4351 9.0122
-19.112 -33.607 11.5922
-17.6632 -31.2909 11.4446
-21.5826 -31.6088 8.27862
-16.3903 -33.4201 11.4696
-17.0206 -35.0673 11.814
-19.0927 -34.0653 11.2589
-21.6035 -30.4396 8.74878
-18.5514 -33.1582 9.98392
-23.0168 -33.6161 6.85075
-20.3976 -28.403 8.49873
-23.8062 -28.4318 6.23437
-21.3588 -30.2736 8.13557
-20.8474 -35.0002 13.0609
-23.8852 -38.1354 15.1729
-21.3533 -31.7563 8.7715
-16.7887 -34.3834 11.4089
-22.6252 -29.9089 7.85358
-23.4813 -33.1898 7.09055
-18.8484 -33.8751 10.1326
-22.1528 -35.3985 13.4062
-24.5138 -29.8 7.68482
-22.3314 -29.8355 8.29189
-19.0156 -31.0344 9.08154
-22.5471 -35.0086 7.31596
-24.049 -29.8561 6.92638
-18.5042 -33.1207 11.0884
-19.4103 -31.4115 9.67959
-22.1012 -34.5619 7.45575
-22.5084 -32.9699 9.31984
-17.852 -33.4162 10.2909
-18.5555 -33.5943 10.8045
-21.7427 -28.5487 7.32091
-19.9312 -30.536 9.78347
-23.7315 -34.1797 6.98704
-19.6148 -33.126 12.2101
-24.3031 -39.1315 16.4918
-21.6523 -30.1591 8.66611
-21.8627 -37.1317 13.9487
-23.1013 -27.8982 7.13492
-23.8488 -29.933 6.87819
-25.4812 -29.9658 5.86628
-23.0925 -29.191 6.66679
-18.7679 -32.9739 11.8509
-24.2216 -34.8566 6.80562
-24.795 -36.1929 5.92404
-23.3403 -36.4743 14.7977
-15.4782 -35.4613 11.0191
-19.6445 -28.615 8.81728
-24.9095 -31.1921 6.27614
-19.2972 -29.0631 8.9331
-20.5254 -30.4236 9.48636
-17.7995 -34.3051 10.4183
-24.3552 -29.38 6.65986
-18.2098 -33.5106 11.2666
-22.8155 -35.395 7.17483
-19.8463 -33.3767 11.1874
-21.6972 -37.39 13.854
-22.6972 -37.4403 14.4099
-23.0005 -28.1901 6.70461
-24.611 -29.2313 6.68133
-21.1626 -32.29 9.74642
-22.8758 -29.9043 7.11794
-22.3054 -29.6381 8.13817
-21.149 -35.5427 8.17997
-23.4685 -37.9442 15.0883
-24.8988 -39.5422 16.1036
-21.3422 -34.5366 9.88812
-19.517 -34.1346 11.0611
-22.4313 -32.3553 7.85571
-21.9422 -31.2736 7.94973
-21.19 -29.0062 7.88035
-23.413 -29.9093 7.33237
-20.4835 -29.9984 8.79043
-21.7539 -28.4974 7.19591
-22.0203 -27.5427 7.39409
-23.7299 -29.6207 7.39587
-21.5715 -29.7151 8.47046
-18.4001 -32.5473 11.1055
-21.3364 -28.9549 8.07035
-17.9741 -34.2587 10.3842
-19.7139 -34.3609 11.9745
-20.3863 -29.1765 8.71638
-20.2718 -31.7084 8.75125
-17.0103 -29.8883 9.85924
-21.212 -32.7609 9.41228
-18.5887 -35.1258 11.0215
-24.0173 -39.2695 15.8298
-21.1855 -29.509 8.14582
-21.5595 -42.5822 6.88986
-21.5635 -37.111 13.5481
-20.9846 -33.3531 11.4827
-22.005 -28.9272 8.09661
-22.1813 -28.5603 7.23802
-20.6606 -35.1871 11.8142
-24.2722 -31.6802 7.05207
-22.669 -37.4774 7.03505
-17.1306 -33.0171 11.4803
-15.3457 -34.2944 11.1733
-22.1621 -27.9137 6.77605
-21.6064 -27.8131 7.28012
-22.1413 -27.9863 7.14298
-25.0447 -38.308 15.7841
-25.5675 -28.5548 5.42678
-23.7523 -34.1582 6.61295
-23.9289 -29.7803 7.29518
-22.173 -31.643 8.1652
-24.3664 -30.7576 7.26044
-23.3004 -30.7083 6.93773
-20.012 -28.9894 8.0112
-21.385 -32.1267 8.96611
-19.8931 -33.7797 10.8769
-23.624 -32.1297 6.78189
-18.4002 -35.455 11.0971
-18.5072 -33.9337 9.62762
-22.4696 -31.426 7.49654
-20.2429 -30.972 8.39374
-21.7356 -31.5521 8.92196
-22.4956 -27.8719 6.92485
-25.1138 -31.5161 5.88708
-23.5921 -29.4504 7.60816
-22.0798 -31.963 8.54347
-20.5222 -32.9168 9.78806
-18.7037 -33.5521 12.0712
-20.5844 -29.2143 8.68795
-21.7026 -29.6276 8.22295
-21.6185 -32.9617 7.73925
-23.6629 -30.2469 7.74261
-24.1454 -29.5339 6.74568
-21.102 -30.0103 8.22088
-20.8096 -37.5643 11.7262
-22.1669 -32.1388 7.89397
-23.0885 -30.6162 7.7016
-19.2986 -31.5667 9.83023
-19.6385 -33.5848 10.0823
-23.2051 -27.4475 6.96872
-16.6111 -32.9553 11.4504
-18.3623 -30.7273 9.39202
-23.0277 -37.1165 6.83331
-23.3469 -30.1129 6.96138
-18.3187 -32.1683 9.50272
-26.7179 -29.1951 5.57486
-21.4226 -29.1505 8.0981
-21.3584 -30.8016 9.06414
-23.7892 -29.9023 6.11618
-20.5969 -31.7298 9.46338
-18.1418 -31.2604 10.7095
-23.6354 -33.1258 6.43369
-25.28 -32.0149 6.2358
-23.1471 -31.3739 7.98778
-21.8217 -36.4218 12.6634
-24.3281 -37.3495 15.6853
-21.715 -31.6664 7.36819
-22.4626 -32.4616 7.81884
-21.2321 -28.7177 7.96179
-22.7689 -37.1528 7.26905
-21.7444 -35.6305 13.3601
-19.772 -30.252 9.04606
-21.0689 -30.2797 8.53714
-25.1916 -30.7903 6.43743
-19.7509 -33.2039 11.6461
-23.2571 -34.5344 6.95166
-23.9617 -28.0168 6.80949
-26.053 -29.3572 6.48219
-20.1755 -33.5944 13.0619
-22.9941 -27.8264 6.58873
-18.6586 -33.3114 12.0579
-20.1816 -32.4362 11.8772
-21.1273 -31.3145 8.12056
-23.2123 -30.9886 7.62863
-17.9052 -32.43 10.8113
-25.2731 -32.4689 5.8514
-23.2811 -30.4416 7.0645
-22.4168 -31.0251 8.57199
-24.739 -29.8842 6.45709
-23.3273 -32.8347 7.02301
-29.1701 -38.6034 18.3546
-21.0933 -28.9132 8.2887
-18.7286 -32.4788 10.1707
-22.7642 -35.7051 13.5575
-18.9286 -32.8831 10.0993
-24.1548 -28.5302 6.34446
-18.113 -31.4484 9.80396
-21.7118 -29.3353 8.1092
-23.8467 -28.6655 6.87489
-18.0704 -34.5344 10.3555
-21.5608 -35.7051 13.3539
-21.0837 -28.7601 7.61793
-23.3869 -33.4537 7.44427
-22.171 -30.5579 8.02234
-24.5546 -29.8164 6.10099
-21.1213 -28.3113 7.48241
-20.3692 -30.1855 9.19663
-23.1401 -38.3381 7.13637
-19.6904 -33.314 12.5162
-17.794 -34.184 10.761
-22.8955 -36.4047 14.5175
-19.1039 -33.0442 11.6868
-21.5847 -35.8028 13.4449
-15.0855 -33.0928 10.1814
-21.4641 -30.308 8.13391
-17.516 -33.4523 11.3848
-21.5732 -35.8444 7.77146
-24.924 -32.5444 6.24959
-21.2751 -37.6496 13.8192
-21.432 -38.0161 13.0942
-20.6773 -30.5495 10.1011
-22.8141 -29.6348 8.76002
-19.4231 -29.6558 8.97394
-16.5296 -33.6862 11.4952
-19.9093 -33.8351 12.1836
-24.1416 -29.8763 6.52707
-21.6459 -28.1326 8.26177
-22.0492 -30.3315 7.2195
-19.3897 -33.5006 11.4547
-18.3797 -34.9741 10.9427
-21.8197 -37.8846 13.7742
-22.5664 -28.3141 7.16132
-22.0263 -31.6237 9.00864
-24.161 -31.6966 7.00077
-20.2846 -28.8253 8.41535
-24.2081 -31.5069 6.26286
-26.4611 -35.995 6.05174
-26.373 -38.6699 17.2583
-22.1859 -37.8458 14.1652
-18.5115 -34.7343 10.7479
-26.0119 -29.6508 6.07892
-22.1455 -32.5307 9.05865
-21.3359 -33.3682 8.01647
-21.3807 -34.8486 12.7144
-22.0915 -28.8879 7.49484
-22.4536 -34.1401 7.69472
-18.6992 -32.9196 10.9512
-22.4327 -30.6377 8.3062
-22.3164 -31.0207 7.05189
-17.7782 -32.929 12.066
-21.2973 -27.9946 8.24386
-21.6798 -35.5922 12.88
-21.6865 -33.6764 8.19653
-24.7347 -39.0944 15.953
-21.3962 -36.191 13.7139
-18.3101 -32.7464 12.328
-23.0381 -29.4548 7.65959
-24.0464 -27.8182 7.03747
-21.0308 -27.9122 7.96588
-23.6151 -33.6904 6.98762
-18.6817 -31.8854 9.75162
-17.9493 -34.0302 11.4504
-23.3213 -29.5147 7.22018
-23.1788 -27.9571 6.99434
-22.4371 -30.0117 7.65765
-23.9445 -30.5606 7.92825
-23.4782 -30.6254 7.44077
-21.8919 -28.2854 7.29856
-25.5077 -34.938 26.592
-21.1289 -28.4681 7.80467
-23.0833 -36.7994 15.3243
-20.7296 -37.386 7.14999
-24.1773 -28.5252 6.5745
-22.6073 -38.091 15.0172
-21.025 -31.83 9.39956
-23.0867 -29.6968 7.00558
-21.1508 -38.0846 13.9051
-18.6795 -28.9788 9.09043
-19.111 -33.541 12.0282
-24.4265 -28.6659 6.63686
-18.3572 -34.1297 10.7729
-22.1959 -33.0349 7.73431
-26.3915 -38.7971 17.5551
-21.5291 -29.2501 7.40808
-20.9569 -37.3094 11.86
-23.0378 -37.0988 14.8412
-17.8897 -34.2326 12.2814
-16.6352 -34.0895 10.7306
-23.5342 -29.1542 6.95981
-22.883 -38.7577 14.6957
-22.0823 -29.6367 6.99646
-28.8436 -38.2408 18.2434
-21.9955 -36.0011 14.1869
[...]
POINT_DATA 10000
SCALARS t float 1
LOOKUP_TABLE default
242.411
220.827
225.969
218.224
218.801
219.166
238.248
214.635
219.972
229.407
236.686
228.389
218.646
220.175
219.591
220.542
232.858
219.547
218.938
216.503
234.231
218.878
220.168
244.377
225.276
246.758
236.654
217.74
233.514
220.029
241.993
219.462
237.813
235.965
222.872
220.947
228.617
219.891
219.805
220.579
235.795
235.995
219.922
221.16
219.884
222.894
228.641
222.37
217.407
239.966
218.862
223.031
228.638
235.828
220.259
231.41
219.255
246.201
225.522
218.361
225.203
225.415
243.708
223.391
234.887
238.312
217.008
227.791
213.661
218.328
219.509
241.53
220.841
235.461
218.738
232.362
218.613
243.939
219.427
236.069
241.149
238.291
226.89
220.371
220.92
219.766
224.695
224.506
235.986
218.883
238.963
234.621
219.758
213.634
231.548
229.786
245.789
228.454
223.329
245.898
232.036
234.444
238.451
220.192
232.158
230.746
220.477
224.221
220.084
218.328
227.21
216.814
218.4
219.667
225.341
220.011
236.061
228.605
244.001
228.719
219.917
217.06
224.548
217.108
230.674
234.475
219.592
219.202
231.937
228.114
224.082
232.017
237.31
218.898
221.781
231.23
221.29
218.782
218.789
235.868
222.126
234.821
220.499
215.149
225.898
218.775
238.08
237.568
245.748
239.927
219.903
235.931
242.542
217.615
215.009
226.851
241.698
225.964
222.811
218.269
239.864
218.632
232.917
220.609
218.843
218.17
240.726
239.893
221.036
235.81
229.25
226.015
217.218
215.787
219.392
219.944
229.403
229.357
231.576
234.266
225.484
236.79
236.565
234.187
227.305
218.859
230.477
218.464
220.79
226.687
224.864
220.807
221.556
218.602
216.075
229.368
232.255
219.081
220.532
230.392
236.478
220.676
235.452
233.284
217.703
214.978
240.407
236.954
237.777
216.181
250.392
237.684
234.707
227.787
234.328
236.72
230.719
223.485
220.272
237.268
218.371
220.814
232.336
227.025
223.935
239.465
244.734
232.929
225.459
220.837
220
226.792
228.782
230.002
231.147
239.033
228.368
219.648
229.282
231.263
221.327
220.168
239.761
217.039
222.922
234.919
236.812
221.945
249.318
230.082
223.829
243.468
222.17
218.859
239.509
241.839
228.957
219.657
216.197
233.161
229.6
231.409
231.667
219.336
224.389
226.521
240.695
220.801
234.917
240.305
241.786
219.844
241.937
219.943
220.877
228.338
231.583
218.282
244.717
235.898
225.798
240.877
235.138
213.312
229.244
219.938
218.845
220.051
243.121
221.009
229.801
239.077
218.501
219.391
233.551
231.725
229.23
243.742
234.957
223.818
232.27
220.311
217.868
218.064
220.133
219.318
217.476
228.706
217.963
228.559
241.355
218.971
219.262
221.551
225.929
225.21
217.031
220.752
240.306
230.372
234.81
220.272
218.333
218.768
237.335
223.463
235.832
228.588
241.602
242.374
214.526
218.453
218.496
244.631
222.649
228.009
220.009
234.319
229.669
219.073
227.467
235.715
219.308
230.587
219.703
226.646
215.963
219.187
219.765
232.557
238.988
232.285
235.031
221.204
218.566
235.558
238.989
231.871
229.727
233.079
236.339
217.976
232.667
216.792
232.44
241.431
217.413
222.178
236.879
218.911
225.372
220.275
240.847
218.466
229.94
214.266
234.457
219.793
217.614
219.767
216.709
237.872
217.821
236.97
213.302
218.711
216.371
234.034
224.059
235.73
220.86
209.927
228.573
231.054
221.9
218.137
218.246
231.771
220.654
219.406
220.085
227.893
233.677
229.613
245.605
215.762
231.276
236.096
222.996
214.308
224.486
221.165
246.586
220.462
229.196
233.31
221.873
231.709
219.944
239.452
236.545
224.839
238.045
217.528
245.132
228.405
235.325
235.531
246.779
217.301
234.341
239.895
228.18
230.738
222.675
237.322
232.977
234.629
217.562
237.831
219.696
233.755
236.817
222.352
217.084
228.664
236.015
221.415
239.486
223.149
233.017
228.02
220.431
237.255
242.698
222.151
230.308
215.87
219.574
218.739
228.832
240.526
220.628
241.092
246.255
242.477
222.517
219.028
218.609
218.537
230.504
223.892
226.355
225.259
230.07
233.928
224.997
222.835
234.763
240.69
216.923
225.441
220.282
228.233
218.071
239.894
234.547
224.167
219.465
231.657
232.321
230.308
235.413
217.786
232.686
220.037
220.195
235.082
234.888
242.148
239.987
220.583
230.214
237.053
220.298
222.63
222.153
218.251
240.074
219.233
221.009
237.844
222.846
238.555
240.612
236.798
221.048
231.036
218.357
215.352
218.254
237.745
244.654
218.471
236.073
218.987
219.331
219.883
240.422
227.406
219.802
226.75
236.508
236.238
220.049
217.858
240.77
215.822
233.925
217.478
236.761
234.588
221.359
233.57
242.129
218.182
230.547
228.58
237.956
226.168
241.608
244.119
240.402
213.186
236.261
231.004
219.127
237.073
215.304
220.859
221.402
217.942
221.782
219.73
220.605
238.898
224.753
237.598
218.264
226.639
234.291
238.368
228.631
231.279
220.293
219.925
215.548
224.364
227.439
217.048
237.022
219.394
219.366
228.626
219.209
239.638
236.551
227.024
234.588
234.331
245.4
219.302
220.871
219.473
239.428
228.416
220.986
250.182
234.383
218.173
235.157
225.393
220.376
234.975
221.456
239.568
227.823
234.413
219.668
222.157
220.555
219.741
220.521
226.931
227.394
217.551
220.485
226.525
220.346
223.601
230.127
220.78
222.582
234.386
219.801
220.622
230.882
218.522
237.113
244.815
233.045
233.991
224.012
221.636
219.211
239.907
226.185
229.606
219.83
230.14
220.292
225.11
221.136
219.606
234.166
231.897
229.291
216.993
215.49
218.656
217.071
218.97
240.399
230.878
242.093
239.704
240.556
250.761
227.945
233.256
218.77
241.657
238.844
228.97
223.939
223.671
239.603
225.211
216.467
220.674
232.657
214.615
235.517
231.919
216.974
219.688
219.19
217.244
220.063
219.363
217.617
217.338
241.635
217.864
231.415
239.805
220.009
218.823
233.32
242.043
219.886
224.806
220.502
237.221
223.266
227.058
228.652
230.396
227.89
233.898
230.783
217.99
231.16
231.385
218.941
245.276
219.381
220.065
219.917
237.018
244.009
218.054
240.318
216.242
233.634
239.036
221.008
225.546
219.515
222.206
236.056
219.42
219.537
217.652
229.618
231.739
240.917
219.018
220.072
236.304
226.091
225.588
220.824
235.804
238.876
227.421
221.317
238.875
216.375
227.217
231.582
239.817
238.409
237.911
238.238
224.115
227.791
229.537
220.23
213.351
227.871
218.688
220.838
224.663
217.374
240.862
233.94
234.308
222.999
224.716
240.065
232.721
237.457
230.369
232.717
236.274
241.76
237.987
226.654
236.099
232.682
224.984
219.598
220.414
235.734
218.4
240.746
237.724
219.946
232.532
239.989
221.33
233.461
220.006
225.798
231.818
237.119
235.928
222.655
225.061
227.273
237.958
235.395
222.936
223.272
232.96
224.849
242.068
243.25
225.809
218.6
243.658
222.454
213.516
219.241
226.156
233.613
229.467
223.011
217.919
232.501
220.341
228.601
219.958
218.876
240.086
235.947
246.118
245.444
236.6
251.127
218.304
233.702
231.779
243.427
233.466
220.559
236.771
225.757
217.839
231.783
219.397
226.368
220.386
247.424
235.093
217.477
225.659
222.716
219.779
236.392
220.443
241.933
230.075
233.68
222.006
231.684
246.932
222.44
219.941
219.686
230.919
236.814
240.774
223.124
220.049
223.901
219.913
233.463
230.549
231.577
237.88
220.195
216.454
226.249
218.988
232.85
230.488
222.397
246.712
223.313
213.415
220.017
217.229
237.714
230.736
223.268
219.444
216.915
235.324
219.158
226.95
245.612
222.607
219.014
241.204
220.525
233.641
217.578
219.198
240.054
238.051
213.461
221.137
239.602
235.196
214.108
234.283
238.956
228.768
228.603
222.714
220.812
229.362
220.349
224.533
220.442
228.942
220.803
220.061
219.902
226.484
222.532
225.53
217.072
242.018
237.141
219.216
216.985
221.172
224.244
219.454
227.561
234.921
217.478
224.258
226.754
226.642
218.854
219.89
232.093
233.902
218.909
243.164
219.441
237.051
218.752
235.508
230.563
236.784
218.515
241.493
219.101
224.938
230.692
238.724
238.999
217.733
218.861
225.505
220.337
224.083
234.333
232.901
242.661
237.948
221.394
234.763
214.356
220.856
230.504
235.349
216.636
234.924
247.536
237.744
222.321
219.42
218.091
219.052
246.855
217.796
236.738
216.999
233.74
247.369
228.139
220.688
232.653
218.875
215.979
219.817
228.544
220.262
214.236
220.248
224.034
220.417
235.437
220.256
219.994
220.76
243.313
237.89
219.174
230.68
230.839
221.333
220.715
230.151
219.382
218.123
219.237
220.591
238.586
228.398
235.422
237.644
219.456
234.75
220.049
228.766
235.189
241.229
233.672
220.212
217.671
219.598
239.09
242.694
233.219
234.016
219.654
222.949
226.154
220.375
228.232
219.218
218.578
222.634
231.961
218.989
228.715
223.52
238.723
248.129
218.732
216.587
234.787
239.198
227.395
244.974
240.413
236.772
233.164
241.484
232.47
225.657
241.701
221.797
219.721
234.792
240.964
230.47
244.591
245.382
238.455
227.455
237.773
221.199
221.909
222.32
241.347
233.74
219.299
223.397
218.415
231.631
220.118
235.263
242.123
217.274
232.183
230.298
218.475
217.857
245.216
232.073
242.891
216.609
223.241
226.371
236.63
229.08
244.082
230.59
221.587
233.915
220.355
225.139
234.635
242.708
220.475
246.364
239.385
220.759
235.642
238.964
220.207
219.46
226.084
221.007
238.515
219.573
238.622
219.978
239.509
249.806
235.245
241.602
218.337
223.506
242.574
239.348
222.918
217.981
239.144
218.322
234.286
220.488
228.874
228.881
236.225
213.91
237.769
222.779
238.983
218.453
220.851
219.599
221.046
236.28
220.398
218.961
217.258
231.673
228.632
237.04
225.236
227.057
237.457
220.075
221.558
218.847
238.902
228.025
219.88
235.02
226.999
220.114
227.627
220.54
230.276
219.05
226.614
215.014
228.039
227.428
218.567
218.837
234.903
227.955
229.388
230.56
244.495
230.638
232.573
218.422
235.769
217.378
236.434
231.331
230.299
231.919
231.499
231.18
244.358
231.594
240.086
235.252
237.383
219.415
219.896
216.612
219.41
235.595
221.003
239.036
241.535
225.394
216.913
229.787
236.992
219.177
216.743
219.191
235.8
223.716
235.24
222.138
222.905
220.312
233.954
227.772
238.36
220.464
235.89
238.433
217.222
231.182
233.059
235.517
233.495
218.25
237.763
233.515
226.502
219.538
220.963
227.088
235.149
219.865
232.823
214.433
219.183
237.938
220.695
226.983
232.488
247.961
224.777
220.783
230.301
236.848
237.363
218.857
220.595
230.279
250.179
214.41
215.351
236.301
240.514
223.562
236.808
224.358
230.246
223.274
239.321
230.223
237.642
220.825
226.087
231.464
218.49
219.809
237.646
238.725
220.474
218.982
218.739
220.068
244.927
237.509
219.542
222.879
219.949
225.492
221.204
217.485
220.357
244.093
222.033
234.247
218.063
219.996
241.334
219.725
228.505
217.466
218.258
221.69
236.454
231.971
214.144
227.522
218.369
220.293
217.007
237.654
227.794
218.957
218.916
232.225
239.571
219.53
228.631
235.664
220.148
220.803
234.331
234.761
229.702
244.109
224.45
230.708
219.384
234.418
239.739
245.034
217.834
220.122
243.203
216.187
230.362
224.012
216.107
216.619
213.867
242.298
218.447
233.965
219.263
225.85
237.109
234.352
246.563
249.659
222.282
218.211
224.97
220.394
228.747
233.616
231.295
238.931
218.554
233.882
217.786
229.871
229.611
225.085
226.685
219.693
221.444
238.629
226.88
216.8
220.159
222.465
218.284
227.394
217.031
240.711
220.126
224.785
236.132
228.956
219.72
224.947
237.452
242.533
237.79
217.687
236.502
218.267
236.054
219.429
234.508
223.577
227.995
217.383
219.019
223.974
222.729
228.636
228.549
220.234
215.189
226.16
222.422
230.476
222.544
218.618
218.863
228.915
227.762
238.615
223.579
232.111
231.149
228.623
232.382
235.361
227.984
239.541
230.286
239.42
219.715
237.984
228.372
233.61
225.769
239.067
237.775
220.373
225.249
238.57
232.071
231.898
222.18
236.692
234.948
218.236
236.15
221.001
237.005
239.101
240.942
219.056
215.303
217.178
235.541
219.054
227.117
217.988
221.963
219.322
219.361
247.273
225.144
219.334
219.392
218.858
225.289
240.976
234.772
218.693
216.299
224.432
226.467
231.794
232.028
221.925
220.029
218.112
229.677
216.965
234.297
234.574
228.03
220.595
218.982
241.133
249.101
219.817
219.718
244.459
220.418
238.274
222.738
246.784
237.817
219.966
228.974
244.304
235.168
219.622
235.362
219.187
230.479
237.11
227.296
219.119
221.408
232.889
217.618
237.527
235.887
220.884
242.859
228.902
215.051
219.699
217.187
224.917
221.848
231.15
219.441
233.82
229.69
230.343
220.229
233.604
219.459
227.395
219.516
248.585
227.108
220.539
219.078
219.266
242.49
242.637
218.925
220.256
233.258
233.266
237.989
222.235
220.766
225.98
225.56
237.666
239.36
220.409
219.621
218.656
234.126
222.705
246.441
220.311
243.454
230.508
229.034
227.907
235.081
222.726
243.026
213.578
232.907
230.677
218.763
226.287
229.637
243.562
231.478
244.134
236.363
227.988
218.439
220.276
240.673
241.571
224.388
238.155
214.118
227.145
238.153
218.661
237.048
230.358
235.386
229.811
218.373
226.548
240.389
239.348
220.515
226.265
220.873
219.273
227.079
219.343
235.271
225.623
220.251
243.174
231.091
220.162
237.666
218.089
233.97
235.151
217.366
240.376
234.291
222.414
219.765
224.252
216.683
232.815
235.545
219.41
239.428
218.175
243.689
220.204
220.553
240.932
237.884
220.867
231.979
230.461
219.333
250.092
233.577
217.669
234.8
224.884
219.328
225.428
229.645
216.603
225.993
219.94
229.587
239.952
226.881
248.198
230.16
238.394
225.749
238.9
232.983
213.502
236.285
230.849
228.996
236.061
224.188
221.839
243.951
232.228
234.663
220.688
236.678
239.558
234.676
236.182
231.564
218.635
217.594
219.187
219.028
225.205
229.611
228.281
219.125
219.297
219.138
231.92
231.092
223.304
230.293
219.187
232.46
227.542
228.006
219.143
229.55
229.968
229.119
231.769
232.124
235.331
219.812
216.639
224.467
224.12
219.842
238.574
227.464
219.737
226.413
240.557
238.526
230.189
217.937
228.417
234.452
228.607
247.956
224.985
220.187
217.695
243.333
218.859
214.6
226.243
239.459
239.256
239.427
230.234
227.025
220.446
227.239
230.416
226.01
238.596
235.297
236.815
242.821
228.817
219.114
223.56
227.812
223.793
245.9
233.024
218.623
238.519
238.625
241.911
219.952
218.889
224.69
222.435
217.881
234.11
222.467
238.543
214.887
220.194
224.865
218.347
215.464
234.873
234.161
237.899
232.968
222.681
242.25
218.233
226.085
224.017
244.124
219.361
243.056
231.521
236.311
230.068
233.681
222.457
227.965
227.211
226.982
227.954
222.023
233.845
220.341
220.563
234.932
241.645
232.254
220.62
225.442
218.79
236.638
239.766
232.692
226.356
233.612
221.388
229.778
219.395
220.385
227.518
219.993
226.106
234.094
217.619
224.62
215.574
229.396
220.157
227.397
219.847
226.413
243.244
215.21
213.764
242.512
220.711
220.289
236.561
231.836
248.197
240.486
222.081
237.432
219.664
237.327
225.849
230.924
223.743
221.633
233.855
223.389
241.662
220.664
220.54
244.167
234.875
230.536
219.183
217.969
218.727
218.261
235.031
235.405
229.006
238.354
231.39
220.68
218.989
234.272
233.629
219.425
240.619
228.597
218.209
234.387
220.846
220.204
237.56
230.939
242.641
222.37
236.35
225.788
226.111
232.257
231.434
234.108
239.594
232.834
241.597
220.086
219.524
231.635
236.97
237.664
226.909
239.15
215.207
217.144
231.122
233.577
227.538
224.354
233.734
221.013
220.537
224.85
220.147
234.375
217.325
229.098
230.132
219.887
216.716
219.589
227.513
221.975
219.313
231.253
228.643
240.631
217.55
233.93
239.16
225.658
217.993
219.932
222.861
241.499
230.863
226.774
239.618
228.562
238.395
230.498
231.185
227.653
228.672
233.453
236.327
216.001
218.748
225.069
220.841
220.714
215.822
223.168
225.225
236.709
235.25
233.164
227.486
217.427
245.164
225.497
230.164
221.229
233.933
217.588
228.744
223.855
220.456
228.733
220.336
241.351
216.505
219.683
226.753
237.179
219.957
245.172
218.506
228.601
217.621
227.319
240.911
235.724
237.905
226.389
226.743
230.409
219.156
216.176
232.431
236.517
233.574
227.806
237.181
228.594
233.622
238.216
222.605
238.117
226.836
239.983
228.985
216.043
229.805
237.435
222.739
220.247
224.469
228.007
234.645
227.182
224.427
244.489
242.313
237.989
220.437
228.378
234.836
239.901
212.627
236.958
222.181
237.931
243.833
238.885
232.419
213.617
218.87
234.497
217.932
238.547
236.308
238.545
219.404
229.455
217.153
216.062
239.253
240.228
230.286
237.424
217.328
242.049
225.737
230.679
222.347
226.502
219.997
224.862
227.824
219.435
237.452
219.399
233.921
218.645
218.463
231.228
218.637
239.662
218.398
235.622
251.214
236.687
235.233
249.64
224.252
235.155
219.327
228.488
229.457
227.389
220.458
219.798
228.955
229.554
237.305
240.212
228.637
229.097
218.998
218.387
245.871
216.774
225.215
239.046
220.381
221.318
232.283
223.129
244.096
238.048
233.059
220.865
239.196
228.833
226.903
231.102
232.037
222.229
233.219
222.687
215.515
213.285
228.39
235.278
216.335
220.186
220.916
234.824
222.417
244.63
232.092
234.776
220.642
233.543
230.893
225.814
239.525
224.576
220.181
238.111
219.019
225.133
237.312
228.778
223.31
215.574
220.415
239.605
228.181
232.822
219.552
218.682
237.97
221.508
237.895
221.803
237.859
220.901
225.477
238.908
224.454
246.533
235.531
230.507
218.221
223.462
247.763
237.413
213.368
232.474
222.972
235.115
218.553
234.311
219.38
229.504
237.002
235.552
223.02
217.207
215.161
220.518
236.954
220.546
228.87
239.626
217.407
223.665
224.395
245.109
218.844
219.788
229.715
240.236
234.286
235.053
235.789
219.203
236.362
225.008
227.967
222.644
219.533
243.687
219.982
219.898
234.919
230.762
222.449
233.241
226.117
217.602
223.441
218.895
229.715
217.478
219.34
244.956
234.089
232.981
243.705
222.625
232.079
220.082
219.756
222.108
218.321
222.069
237.445
232.166
239.12
219.441
223.753
224.326
223.206
238.089
221.863
220.269
227.881
218.013
227.085
241.057
222.017
219.901
235.564
218.278
235.854
235.698
221.058
218.235
236.499
223.767
235.157
221.689
235.067
241.027
226.731
236.163
226.629
229.798
234.867
218.651
240.41
231.61
213.967
239.407
243.741
235.312
236.729
220.807
234.229
219.959
221.196
220.113
226.616
243.242
221.874
220.065
241.118
238.457
226.703
242.007
218.769
238.396
220.793
227.549
226.499
240.228
241.434
229.819
214.406
230.369
235.482
216.969
226.118
220.435
232.439
224.77
228.997
233.558
232.082
227.604
245.029
230.274
217.015
218.483
223.158
239.087
221.183
227.109
231.297
240.583
236.498
219.443
231.804
220.937
219.861
229.333
242.216
229.914
231.559
234.947
229.42
225.026
218.18
235.057
243.622
225.278
236.283
219.039
219.732
225.297
234.564
214.06
232.447
218.55
242.639
235.953
219.262
233.453
240.384
223.046
219.268
217.986
219.282
222.928
229.231
242.228
229.106
220.449
231.875
236.077
230.186
237.689
226.92
220.114
243.101
214.219
227.504
233.478
219.201
239.207
234.345
213.924
223.08
243.951
229.038
219.553
219.406
225.502
232.518
229.267
235.139
234.578
218.721
221.097
235.168
232.385
218.891
224.283
216.923
219.596
218.451
215.715
241.608
232.937
224.133
243.456
225.247
233.376
239.212
219.154
237.329
222.811
233.412
228.14
245.143
239.799
217.294
226.143
234.517
221.849
236.387
219.067
234.217
228.909
218.89
226.227
223.051
231.265
220.424
236.784
238.056
233.072
218.636
232.885
234.843
243.945
219.049
223.038
228.044
248.029
220.637
232.472
238.649
221.249
218.903
219.678
221.615
235.897
242.231
217.715
234.532
220.862
235.566
236.427
238.518
213.182
227.724
219.724
230.51
240.628
227.332
223.816
237.085
230.2
231.134
230.184
232.144
219.361
220.076
218.274
218.089
233.086
234.643
220.371
222.651
236.917
231.387
220.389
235.029
220.221
238.721
220.359
228.094
245.86
238.336
219.794
238.49
236.289
222.07
239.143
244.287
217.059
220.162
219.705
231.821
217.803
236.85
244.063
218.983
237.998
237.384
219.544
222.664
223.863
243.123
229.083
230.912
228.751
222.786
218.558
233.428
221.727
236.809
236.55
229.214
218.754
235.993
219.993
235.445
232.958
220.309
238.486
219.505
220.184
229.92
232.592
218.801
232.748
224.791
219.69
240.112
224.589
223.349
242.991
219.63
233.084
221.741
218.025
224.926
221.077
217.548
219.711
237.016
215.736
223.312
220.991
220.862
233.687
236.157
220.438
218.958
216.971
222.142
233.961
230.137
222.306
229.066
219.784
219.282
219.222
231.898
220.212
236.575
225.151
237.394
213.096
220.355
236.269
213.215
219.521
235.803
219.947
217.568
232.443
237.098
234.241
225.884
240.559
219.425
234.55
220.49
217.898
229.183
217.851
219.965
220.742
226.128
230.672
218.528
222.036
224.326
233.549
219.473
236.717
220.592
226.377
218.155
226.973
232.432
235.378
217.097
230.903
229.569
241.409
232.696
222.181
229.533
229.578
218.477
226.494
246.584
234.855
223.211
220.134
224.209
223.598
222.75
234.175
241.467
233.653
233.435
223.981
242.53
218.662
220.769