# vtk DataFile Version 3.0
vtk output
ASCII
DATASET POLYDATA
POINTS 10000 float
-23.8568 -31.4932 7.4501
-21.9678 -33.3789 11.2446
-22.2948 -31.2909 9.77772
-22.8761 -36.3343 14.1242
-21.6509 -33.3829 11.0973
-21.9191 -32.7752 13.1801
-22.7537 -31.1508 8.548
-19.8415 -30.7442 10.5489
-20.5626 -30.0256 10.6087
-22.776 -30.5973 9.04667
-22.4958 -32.3864 8.32544
-22.5365 -33.9261 9.47938
-22.5485 -35.4119 13.6166
-21.5522 -37.7569 11.6069
-21.2763 -36.1131 12.9351
-22.1207 -32.179 10.2875
-19.7695 -41.5273 9.03779
-21.529 -33.6414 12.8288
-20.7744 -30.9742 10.6524
-19.4523 -30.3065 11.5665
-21.4861 -44.0533 7.99984
-22.2652 -34.4624 13.6599
-21.401 -33.4668 11.659
-23.0619 -33.4249 7.90258
-22.7665 -31.8807 9.42373
-23.1445 -31.7824 7.15306
-20.6874 -39.6344 8.41579
-23.1582 -38.0162 14.4558
-23.0173 -31.9099 8.76877
-20.5012 -32.5468 11.7473
-22.2468 -37.5979 7.82934
-19.0432 -28.0016 10.2835
-23.3409 -30.6931 8.11878
-22.7699 -34.086 9.03845
-21.3501 -31.1287 9.95822
-21.4069 -33.2306 11.9203
-22.2296 -30.866 9.06643
-21.7579 -34.9243 11.0844
-20.9588 -31.9015 10.3412
-21.2375 -33.442 12.2473
-20.4291 -41.4097 8.3265
-21.5793 -36.7706 8.41969
-21.1529 -32.3167 11.2829
-22.234 -34.0317 10.5165
-21.333 -31.0357 10.6906
-21.767 -30.8189 9.99285
-22.7234 -31.7601 9.54169
-22.4701 -33.5111 10.3576
-20.1949 -30.9098 10.6964
-20.6434 -40.1693 7.98712
-20.2888 -31.8902 11.6845
-21.0284 -38.6552 10.1142
-22.787 -34.5754 9.45524
-21.5845 -37.0236 8.46308
-21.4757 -35.0547 12.3523
-20.7104 -40.029 9.41044
-21.4893 -37.196 12.906
-24.3256 -29.8861 6.9267
-21.375 -36.091 9.8072
-20.9101 -30.7265 10.7383
-22.8294 -32.733 9.63406
-21.979 -35.6017 9.97819
-23.9826 -28.8367 7.15238
-21.9248 -30.4214 9.88236
-23.3412 -32.47 8.94349
-23.5577 -30.5126 7.93273
-23.4514 -37.0126 15.0078
-22.3233 -30.9575 9.65836
-27.2636 -38.4667 17.598
-22.9308 -35.7574 13.9235
-21.5146 -37.6369 12.8419
-22.8137 -33.3035 8.04209
-21.3238 -34.4871 11.7989
-21.663 -35.9939 9.14371
-22.7506 -35.6933 13.5652
-20.2588 -44.4988 7.98806
-20.8452 -31.0483 10.7278
-24.418 -32.1631 6.78688
-21.2271 -31.296 11.1041
-21.8459 -39.9268 7.82023
-19.3184 -42.8998 8.48877
-21.1312 -39.5678 7.71925
-21.8373 -36.4315 9.85183
-21.4518 -35.4411 12.0514
-21.2853 -30.7331 10.2602
-21.1056 -33.4919 12.7717
-22.6192 -32.3269 9.47648
-22.3916 -33.5666 9.97233
-21.1289 -38.8505 8.70992
-21.9105 -37.0943 13.3123
-23 -35.2832 7.62072
-22.9258 -31.3276 8.72432
-21.2313 -31.0196 11.0079
-31.6859 -37.7612 19.259
-22.5814 -34.5795 8.94248
-22.9898 -31.1837 9.14151
-22.2429 -37.2658 7.61127
-20.2776 -44.2192 8.64062
-22.0498 -31.008 9.79373
-24.1924 -32.4437 7.10309
-22.1514 -33.8984 8.86964
-22.0054 -34.1145 8.92411
-22.9395 -34.6875 8.13533
-21.107 -30.8388 10.3601
-21.3302 -37.9004 9.02724
-21.5066 -37.6047 8.97398
-21.178 -33.7646 12.3389
-22.1024 -32.0108 9.94867
-21.6066 -34.1988 11.8277
-19.5337 -29.44 11.0969
-22.7082 -32.4866 8.99274
-20.5609 -32.2461 11.4238
-19.6985 -33.1145 11.739
-21.8077 -35.898 11.5474
-22.6873 -32.7818 9.63818
-21.864 -33.1897 10.5105
-20.4226 -40.0479 8.31789
-21.2943 -28.1013 9.2311
-23.6555 -31.0135 7.51604
-22.986 -30.873 9.06145
-21.1523 -34.0809 13.0172
-23.6302 -39.157 15.0768
-22.7566 -32.7113 9.69493
-20.6759 -33.1649 11.539
-22.781 -32.5637 9.01126
-20.4985 -42.3001 8.59527
-21.6132 -32.5674 10.4479
-21.862 -32.9912 12.8275
-23.3629 -32.9495 8.79608
-22.8354 -32.4663 9.40011
-21.1868 -30.2741 9.87193
-21.2786 -44.2511 8.1682
-22.1273 -35.2528 8.87507
-21.4295 -32.4601 11.0447
-21.9974 -31.4613 10.395
-19.2863 -45.4152 8.73963
-22.4657 -35.1342 9.98277
-20.8113 -31.4079 10.7097
-21.2509 -32.5754 11.1206
-22.9683 -30.2555 8.1927
-21.3744 -30.2219 10.3341
-22.2565 -39.3945 7.99333
-20.5905 -32.4915 12.191
-24.1569 -39.3337 16.3061
-22.525 -33.9662 9.80629
-22.5541 -35.416 13.5856
-23.7059 -29.77 7.91765
-21.75 -36.4179 8.45227
-24.2752 -31.2169 6.94123
-23.3359 -30.9815 7.56761
-20.0148 -31.8685 11.8075
-21.1203 -43.4562 7.96587
-22.1823 -42.1774 7.07822
-23.3118 -37.2942 14.5211
-20.0861 -32.0152 11.1918
-21.4975 -29.0946 9.60085
-24.425 -31.7068 6.77131
-21.3336 -28.8969 9.49422
-22.1919 -33.531 10.3506
-21.9944 -32.1443 10.5144
-23.4919 -32.242 7.97744
-21.2876 -32.6182 11.2508
-19.4723 -43.29 8.1183
-22.1056 -34.7192 11.4157
-21.9902 -36.5913 13.5196
-23.0116 -37.7163 14.0981
-23.7958 -30.5342 7.9804
-23.5808 -31.2965 7.64923
-22.5252 -33.9505 10.4212
-22.7262 -34.5693 8.39979
-23.1838 -31.3368 9.25035
-18.7698 -42.7762 9.4366
-23.2985 -38.8506 14.9137
-24.3883 -39.6562 15.9109
-21.986 -35.5737 10.3025
-22.0005 -34.3131 11.2049
-22.4277 -34.2656 8.4914
-22.7564 -34.4165 9.43887
-22.1421 -28.9981 8.77445
-23.3097 -32.733 8.53335
-22.2871 -30.8308 9.66576
-23.5467 -30.9549 8.29739
-22.8502 -29.5021 8.68482
-23.6753 -30.7354 7.97976
-22.5869 -31.4146 9.68645
-21.3284 -32.2871 11.1192
-22.7926 -30.0611 8.88184
-21.3905 -31.7168 10.4255
-20.6882 -33.2158 11.5693
-22.2008 -30.4328 9.76312
-21.9777 -30.9743 9.38707
-20.4976 -29.3639 10.0629
-22.2997 -36.2931 10.3729
-21.1117 -33.045 10.9122
-23.7144 -39.8207 15.6057
-22.8847 -31.6222 9.35181
-24.6879 -47.4697 7.34557
-22.0226 -35.8863 13.1503
-22.073 -34.2667 11.6296
-22.7885 -33.1414 9.71303
-22.4081 -31.1702 8.48822
-21.3199 -35.0349 11.9787
-21.2233 -38.8048 8.63197
-20.803 -43.9284 7.732
-20.4009 -31.5078 11.4898
-20.1971 -31.3288 11.288
-23.008 -29.0914 7.77043
-23.1264 -30.2878 8.5677
-23.0909 -29.679 8.4725
-24.4009 -38.9658 15.6192
-25.0812 -29.6964 6.36711
-21.2943 -42.7113 7.85666
-23.9545 -30.8834 7.89731
-22.9946 -33.5508 8.77479
-21.5687 -37.2015 8.90238
-20.7247 -39.7463 8.97167
-22.1813 -29.4517 8.84151
-22.7963 -31.962 9.41456
-21.7489 -35.1284 11.2113
-20.9156 -40.6056 8.52236
-21.7496 -34.6305 11.0864
-21.5746 -31.6191 10.0017
-21.1406 -38.2606 9.09015
-22.4185 -32.4456 9.71661
-22.5969 -34.3455 10.1204
-23.2528 -28.8818 7.87568
-22.3884 -36.5697 7.59192
-21.1428 -37.8926 9.66528
-22.6352 -34.9041 9.34316
-22.5583 -34.3488 10.2088
-19.8944 -32.1847 11.9488
-22.2846 -30.7723 9.81111
-22.9752 -30.1258 9.00291
-20.3973 -39.501 9.28042
-22.8091 -33.6643 8.95782
-23.4429 -32.2686 7.91305
-22.262 -33.1983 9.64844
-21.5081 -37.1373 11.6965
-21.7342 -36.3653 9.33028
-20.7592 -39.1052 9.56111
-22.1434 -32.6839 10.5774
-21.8773 -33.816 10.5177
-23.9066 -31.1688 8.38745
-19.6655 -30.5855 11.2205
-20.9818 -29.7713 9.87965
-20.7377 -43.7301 7.6754
-23.2195 -33.2094 8.35272
-21.7987 -31.7737 9.953
-26.0293 -29.9399 6.22294
-22.5462 -30.8504 9.13401
-22.7385 -34.4909 10.0958
-22.8956 -33.0887 7.48072
-22.5424 -31.9609 9.94969
-21.5603 -31.1514 11.0487
-19.9288 -42.6674 8.13075
-22.9991 -35.8629 7.57685
-22.9727 -33.5734 8.91865
-21.7334 -35.7378 12.4388
-23.9817 -38.0215 15.5005
-20.582 -38.2544 9.10694
-18.8208 -42.9087 9.58848
-23.0986 -31.0858 9.2364
-22.2331 -46.7503 8.20266
-21.8667 -34.8888 13.0076
-23.0047 -32.1998 10.1782
-22.3962 -31.476 9.4551
-22.9187 -35.244 7.94613
-21.5267 -33.0505 11.8863
-22.1006 -40.384 7.90606
-23.71 -30.6525 7.94131
-25.3069 -29.6023 6.8018
-20.5189 -31.3028 12.7691
-23.2669 -30.1135 8.03858
-20.5054 -32.6723 11.8997
-21.2767 -32.1993 11.913
-22.8661 -32.0705 8.84285
-20.4677 -40.6269 9.45854
-21.0713 -32.0391 11.3063
-23.2167 -36.8696 7.43946
-21.3335 -37.8637 9.43895
-22.9164 -33.2524 9.37175
-23.2528 -32.6994 7.85535
-18.6447 -43.4043 8.43763
-28.8658 -38.0489 18.311
-22.5236 -31.1285 9.52732
-21.3101 -30.7296 10.0852
-22.3561 -34.7625 13.1478
-21.977 -32.8265 10.7446
-23.7006 -31.9611 7.90125
-21.3376 -30.4573 10.2344
-22.9012 -31.365 9.29691
-23.6808 -31.7577 8.17841
-21.711 -32.3359 10.4304
-21.7101 -34.3693 12.9867
-22.8518 -29.5383 8.80972
-19.9569 -43.4132 8.5678
-20.9795 -37.3289 9.74388
-22.6977 -33.7607 7.80517
-22.6957 -30.0834 8.68497
-22.284 -31.0315 10.0486
-22.0606 -45.9659 7.80131
-20.8253 -32.6764 12.5138
-20.6576 -31.8192 10.698
-23.1616 -36.3417 14.1234
-21.0015 -32.6833 11.621
-21.9284 -34.7031 13.2535
-18.1357 -29.9381 9.56712
-22.5933 -32.7279 9.03432
-20.197 -31.5381 11.4192
-21.1869 -44.7379 8.66162
-22.2155 -37.8994 7.68172
-21.9435 -36.4532 13.4741
-21.3487 -38.6658 13.015
-21.8821 -30.9672 10.673
-23.2326 -32.9224 9.90805
-22.1346 -30.0822 9.69036
-19.5268 -31.3311 11.3896
-21.0144 -33.2198 11.9422
-23.0843 -32.065 7.8178
-23.1391 -31.2145 9.25697
-22.9233 -31.4234 8.15758
-21.3132 -32.7685 11.3259
-21.2402 -33.4052 10.9237
-22.2648 -36.6582 13.3162
-23.2094 -31.468 8.45291
-21.8213 -36.5517 10.1786
-20.2348 -41.6021 8.82948
-21.9983 -29.7426 9.40875
-21.0634 -38.2672 8.29803
-23.5731 -42.1582 7.10408
-25.5452 -39.098 17.0425
-22.6099 -37.563 13.8282
-21.7706 -33.8253 10.8127
-23.5488 -33.2105 7.55098
-21.837 -36.4958 9.97934
-18.9447 -42.2812 9.43251
-21.5794 -34.3536 12.6953
-23.0665 -32.1686 9.14807
-21.0995 -44.0741 8.81255
-20.7986 -30.9255 10.9361
-22.148 -35.1199 9.56752
-19.8764 -40.3588 9.16432
-20.0239 -31.6138 12.0425
-22.6895 -30.1482 9.22945
-21.4916 -34.1552 12.5688
-19.5211 -41.2322 9.68161
-24.1617 -39.2888 15.7449
-22.0729 -34.6141 13.4003
-19.6117 -31.4754 12.0079
-22.2572 -34.2384 9.45299
-23.7379 -30.2965 8.28739
-22.3854 -32.1596 9.48505
-20.3723 -41.467 8.17647
-21.3143 -30.899 10.2402
-20.3706 -32.7828 11.2633
-22.7536 -34.6363 9.03258
-23.3512 -30.7644 8.30085
-22.3816 -33.5445 8.90209
-22.8461 -34.6957 9.27214
-22.0461 -36.1201 8.93269
-22.9575 -30.713 8.91086
-23.0752 -35.968 26.2324
-22.7186 -30.4925 9.01563
-23.2147 -37.7934 15.1759
-21.9463 -45.8216 8.03085
-24.1904 -29.8703 7.43226
-23.2103 -38.6756 14.8348
-22.5668 -34.2591 10.3676
-22.2353 -34.9583 8.70844
-22.0222 -36.7315 13.4664
-20.4341 -28.5435 9.39919
-20.9475 -33.239 12.1734
-23.8786 -30.5228 7.675
-21.3248 -33.158 10.8163
-19.9717 -41.9237 9.28929
-25.843 -38.9654 17.3133
-22.8618 -32.0179 8.94182
-21.5231 -37.6353 11.8447
-23.0418 -37.9468 14.5993
-19.563 -33.0945 12.3996
-20.3787 -31.0548 10.4787
-23.4325 -31.5537 7.91903
-23.007 -39.1729 14.4302
-23.0114 -30.3443 7.9488
-28.7498 -37.9148 18.1613
-22.5109 -34.8013 13.8814
[...]
POINT_DATA 10000
SCALARS t float 1
LOOKUP_TABLE default
231.759
220.382
220.693
218.578
220.558
220.169
224.761
221.565
221.384
222.557
225.752
220.188
219.36
218.452
220.46
220.247
218.695
220.787
221.43
221.198
223.701
219.578
221.15
227.921
221.086
234.017
222.775
217.863
223.442
221.919
227.203
221.245
227.373
221.295
221.03
221.198
222.542
219.655
221.413
221.22
222.911
223.47
221.353
219.472
221.106
220.614
220.882
219.522
221.634
225.6
221.883
216.598
219.71
223.129
220.716
217.475
219.864
236.339
218.748
221.368
220.352
218.402
235.11
220.871
222.335
228.679
217.539
220.968
215
218.829
219.656
227.08
220.995
220.074
219.205
224.004
221.411
236.533
221.29
226.71
221.645
227.621
218.082
220.488
221.036
221.117
220.917
219.59
221.203
219.451
229.244
223.839
221.267
214.227
221.513
221.956
228.823
219.887
220.837
234.04
222.435
222.122
225.877
221.189
219.803
220.176
221.227
220.373
220.824
221.039
222.338
221.805
222.314
219.491
220.395
220.213
223.35
223.487
231.45
222.397
220.824
217.074
220.272
221.749
222.195
220.826
220.631
220.603
222.812
220.936
221.3
222.472
221.613
220.959
220.481
219.066
218.426
221.461
221.151
227.05
221.097
225.507
221.598
216.159
219.547
219.372
229.122
223.35
235.733
231.101
221.848
224.415
231.455
217.935
221.93
222.03
236.833
222.342
219.763
220.37
227.8
221.178
223.948
219.819
219.489
218.194
228.368
230.38
219.249
224.212
221.5
217.078
217.342
216.389
218.481
219.931
223.879
219.858
224.544
224.17
220.991
226.141
224.708
228.284
220.703
221.124
223.481
220.97
221.743
220.985
221.675
221.404
217.712
221.105
216.621
221.268
226.136
219.849
220.277
220.043
225.174
220.779
221.654
225.992
221.737
221.72
230.355
224.855
225.587
216.59
240.828
225.547
228.778
222.736
220.714
219.467
223.937
221.076
219.67
221.783
219.867
220.737
219.34
220.5
218.905
229.852
229.123
217.83
219.796
218.942
221.874
220.733
222.963
218.129
221.888
228.232
220.489
219.077
219.276
217.495
220.127
219.935
225.496
221.38
221.448
226.515
225.013
220.605
241.991
222.097
218.719
231.047
220.068
221.07
223.976
229.395
222.06
220.265
216.828
219.435
216.626
221.629
220.881
220.277
219.718
221.256
226.975
221.143
225.852
228.573
237.467
220.819
228.089
221.837
221.396
223.105
217.15
221.448
230.133
218.317
220.613
228.49
221.972
214.367
221.096
220.965
219.866
220.239
228.383
221.04
221.45
226.616
220.566
220.471
224.15
220.775
218.145
228.498
224.344
220.333
223.984
221.349
221.604
218.441
221.582
220.067
221.763
222.102
221.785
219.107
228.184
219.577
219.222
220.751
219.518
221.251
221.673
221.498
229.02
221.537
227.003
221.172
220.866
219.358
225.022
217.75
219.781
221.895
223.866
231.081
215.612
218.631
220.075
230.411
217.771
217.109
220.837
221.623
218.591
221.445
219.435
218.306
221.57
221.98
220.92
216.506
216.523
219.874
221.527
220.209
226.507
221.084
223.955
221.012
221.931
221.013
226.171
222.38
220.002
220.924
223.124
217.195
222.73
217.305
222.442
232.509
217.478
219.02
222.543
219.449
222.697
221.46
230.439
220.807
217.365
215.427
222.667
218.877
217.847
222.019
221.653
228.431
217.666
228.64
214.404
219.188
221.508
219.528
220.831
217.253
220.259
218.742
220.306
217.011
217.154
221.523
218.341
224.237
220.548
219.661
219.481
217.087
222.248
220.734
230.086
216.459
221.202
224.746
220.601
215.435
219.458
221.18
238.709
219.462
221.068
221.531
215.868
220.465
219.131
226.184
225.996
221.698
222.653
217.837
234.753
217.803
220.522
224.55
242.698
221.209
223.141
229.306
221.491
221.369
220.366
225.283
222.039
223.809
220.793
224.531
220.715
222.027
222.612
221.304
217.811
220.604
226.887
220.759
222.678
220.691
220.017
220.432
221.598
224.508
226.475
221.426
220.707
220.865
220.107
221.172
221.578
224.333
221.105
230.672
240.664
229.209
220.762
221.331
219.351
219.326
217.033
219.684
221.812
220.192
221.767
218.228
220.369
221.795
224.907
228.086
221.568
218.133
221.221
219.576
217.734
225.618
221.023
220.519
219.599
221.528
223.533
224.543
222.587
217.8
225.138
220.889
220.046
221.112
219.324
230.234
227.117
221.647
221.738
227.921
220.26
220.05
220.643
221.488
228.077
220.077
221.57
225.288
221.009
224.97
225.327
220.848
217.334
222.619
218.737
221.337
221.375
224.005
233.439
218.855
221.895
222.033
219.938
219.002
225.764
221.331
220.462
219.21
229.156
225.488
220.577
221.751
228.401
216.233
220.58
217.955
224.785
220.932
218.631
217.753
228.201
221.464
221.056
221.104
227.077
220.72
224.789
233.516
224.504
213.975
225.329
218.733
219.616
225.116
221.295
219.943
219.034
221.666
219.931
219.799
220.145
223.991
219.617
229.443
218.141
220.963
224.409
226.04
222.497
223.47
220.194
220.973
216.213
220.285
220.46
219.859
224.5
220.49
220.771
216.835
221.39
224.287
230.858
221.487
222.494
218.138
228.873
219.036
219.564
220.849
227.147
221.304
218.299
241.914
226.091
221.26
223.894
222.362
217.991
221.195
219.602
229.536
221.62
221.473
219.404
219.617
219.916
220.728
220.242
219.522
219.601
221.393
220.376
217.484
220.437
220.818
222.393
221.497
217.941
224.788
219.137
220.403
219.45
220.736
224.492
229.459
221.716
221.279
217.603
221.951
220.261
232.673
220.882
220.903
220.507
221.309
219.164
220.715
217.829
221.764
222.982
221.597
220.056
221.84
221.066
219.023
221.64
221.533
225.649
219.441
234.494
225.583
226.877
238.292
218.96
219.119
218.937
224.541
225.589
222.166
222.267
218.986
228.828
221.285
216.811
220.219
221.505
215.667
225.984
223.298
217.42
220.857
219.937
221.599
220.237
220.529
221.696
217.616
229.826
221.069
220.909
229.691
221.517
219.596
223.991
231.706
220.61
221.707
221.57
225.758
219.252
220.445
221.163
223.216
227.074
224.593
223.481
221.247
222.808
221.92
220.357
227.643
220.69
221.193
221.262
226.237
227.119
220.973
219.883
216.745
223.789
224.897
221.096
221.409
220.649
220.36
226.909
221.02
221.82
221.518
221.331
220.885
224.396
221.38
221.233
225.775
221.414
218.334
220.265
219.11
225.257
220.78
220.187
228.551
221.28
220.903
220.444
228.596
224.384
228.303
225.019
220.801
222.032
221.019
219.881
213.69
222.883
219.1
221.107
216.145
222.132
229.253
223.772
222.147
219.933
220.713
232.012
221.988
222.436
221.468
223.105
224.632
227.106
227.539
221.69
228.704
221.432
220.465
220.67
220.13
224.137
221.51
229.159
227.019
221.363
224.152
227.372
218.179
224.906
218.476
217.091
220.116
221.198
222.362
220.091
221.123
221.671
226.645
222.503
220.557
218.62
220.84
220.933
227.974
236.1
220.977
221.076
233.05
220.175
214.074
219.626
221.943
225.574
217.58
219.147
221.266
218.295
220.26
218.757
221.459
219.558
224.953
225.778
237.559
231.073
225.209
241.135
221.381
226.544
222.05
231.54
221.113
221.29
223.718
221.335
221.367
223.92
221.378
221.774
221.436
241.363
222.056
220.388
218.833
220.055
220.798
226.854
221.152
226.806
217.999
221.971
219.689
219.338
234.821
220.335
219.502
221.193
220.621
223.174
225.827
220.834
219.649
220.219
221.076
222.416
221.872
222.243
221.431
218.284
221.391
220.866
219.911
224.457
222.776
221.931
233.846
221.004
214.862
220.374
221.459
223.898
219.73
220.856
219.981
221.34
222.673
220.087
217.701
234.91
218.163
221.34
228.44
221.421
224.378
221.461
221.022
226.871
223.073
213.544
221.719
225.239
221.452
221.432
221.665
221.575
222.135
216.693
220.323
220.347
217.058
220.917
216.799
221.068
222.056
220.649
219.53
220.3
216.072
220.564
221.492
221.944
226.119
227.37
221.286
217.214
220.003
219.818
221.614
225.792
217.771
221.369
220.042
221.331
220.219
219.275
220.948
222.646
225.299
219.113
233.055
220.886
227.27
219.263
230.194
218.951
224.544
218.791
229.52
221.187
222.567
218.015
223.52
227.432
221.201
218.552
219.093
220.875
220.359
225.234
222.629
226.866
225.114
220.371
225.965
215.508
220.189
217.574
223.366
221.051
224.872
236.929
227.734
220.815
221.027
221.531
219.138
238.6
221.706
228.23
221.453
222.229
240.779
223.459
219.788
221.321
219.963
216.61
220.874
218.002
220.643
215.269
221.142
219.384
217.308
220.844
221.673
220.779
220.804
227.458
222.998
221.43
221.011
221.313
220.646
220.967
222.111
220.212
218.272
220.512
221.4
224.862
219.957
223.626
224.537
218.659
219.702
219.974
221.153
222.583
226.368
221.522
219.627
221.527
220.484
226.849
231.887
217.382
220.528
221.14
219.584
217.807
219.003
220.845
221.713
218.884
216.311
225.246
221.253
221.739
216.2
226.728
237.782
219.137
221.379
218.939
228.786
222.452
232.615
227.345
221.478
223.467
233.109
223.604
220.783
226.154
220.769
219.49
222.719
229.374
223.954
231.326
236.294
226.149
221.534
226.355
220.52
219.738
220.515
232.83
223.028
221.247
220.121
221.557
223.369
219.772
221.057
231.342
221.397
222.327
218.84
218.806
221.475
234.572
220.48
231.812
220.665
220.075
221.396
226.335
216.667
233.44
220.358
217.852
222.606
219.599
221.069
223.207
236.405
221.335
237.934
228.352
220.663
224.03
227.84
220.31
221.439
218.706
220.168
227.482
220.271
227.224
219.824
224.397
232.425
223.971
232.485
221.149
219.924
228.545
225.399
220.796
220.663
226.963
221.606
231.022
220.937
221.826
221.201
224.486
220.663
223.173
219.305
229.089
220.855
219.594
220.783
220.363
222.087
221.416
220.049
221.804
221.876
226.426
228.157
216.984
221.797
224.104
219.867
219.795
221.516
226.642
220.221
219.547
224.269
220.457
221.403
221.454
221.22
220.533
217.982
221.3
215.97
218.038
220.196
221.815
221.356
228.384
220.285
222.35
217.688
235.111
221.583
218.674
218.589
220.741
217.687
221.534
222.119
219.411
218.832
220.472
217.061
231.285
221.021
225.549
221.722
224.084
221.207
221.941
221.584
221.558
224.112
220.871
227.388
225.026
220.487
220.159
221.841
226.095
220.135
217.132
221.188
222.916
220.31
224.225
221.116
221.096
221.351
224.366
221.318
233.683
220.893
225.982
226.388
219.936
219.104
217.799
225.806
222.112
218.354
226.518
222.192
221.2
220.683
221.008
220.884
221.932
220.586
219.697
214.344
220.027
225.968
220.551
219.889
224.369
232.009
222.075
220.933
222.962
224.716
223.634
219.279
221.415
221.59
242.81
215.528
216.265
219.446
224.166
216.15
226.165
219.596
221.95
220.193
221.588
221.898
228.395
220.917
220.574
219.021
221.374
219.755
225.018
226.656
220.864
219.825
219.637
221.262
237.349
224.118
221.3
219.947
220.642
220.631
220.447
220.842
219.584
233.333
219.187
223.546
221.606
219.402
227.487
219.909
220.519
220.205
218.298
221.087
228.076
223.205
214.054
221.03
221.023
218.498
221.595
228.289
217.204
219.657
219.936
219.285
226.99
221.215
220.275
218.691
219.507
221.132
222.826
222.23
219.778
231.955
220.782
221.519
220.78
220.478
226.288
230.048
221.511
219.758
234.804
216.647
221.263
221.149
221.768
221.789
214.372
232.956
215.571
223.917
220.004
221.289
221.589
222.045
229.667
238.561
218.805
221.833
221.701
221.29
221.116
223.047
217.681
225.21
221.714
223.275
221.473
224.15
220.741
221.17
221.967
220.858
220.747
226.749
220.604
222.001
221.365
217.012
218.375
220.591
221.785
224.607
221.203
219.865
218.34
221.782
220.555
221.269
227.714
229.547
226.806
220.679
228.514
221.047
222.563
220.21
222.183
220.034
220.677
221.523
219.646
220.42
221.886
218.127
220.394
220.482
216.158
222.33
219.559
220.567
216.605
220.607
219.726
217.951
222.506
230.88
221.724
216.713
221.808
222.297
222.12
223.852
217.198
236.898
223.229
226.188
219.687
224.997
219.457
223.325
221.114
227.536
225.109
221.462
221.498
226.039
223.593
222.993
221.322
223.495
219.593
221.701
221.331
221.476
223.861
225.696
231.516
219.648
221.086
221.512
223.899
221.727
219.042
221.324
220.329
220.101
220.131
234.079
220.921
218.874
221.094
221.614
219.765
230.118
221.028
221.329
216.827
215.789
217.82
217.914
223.649
220.247
221.164
221.676
222.696
217.393
224.337
218.664
219.567
220.337
220.793
228.079
238.598
221.06
218.913
226.272
220.059
231.415
220.274
232.727
228.945
221.454
217.615
227.322
224.982
216.257
220.815
219.759
221.697
224.283
219.527
219.779
221.141
221.915
221.421
222.998
225.189
221.178
226.862
219.009
220.488
219.893
217.376
220.554
220.761
220.36
220.518
222.162
221.986
223.857
221.511
219.719
222.026
218.054
220.548
232.579
220.263
221.634
215.915
220.901
231.352
229.332
221.671
221.546
224.571
221.95
227.637
219.929
220.553
218.531
220.694
221.193
224.713
221.403
220.417
219.206
224.228
218.599
236.172
220.042
228.823
219.131
219.073
218.124
225.653
220.884
225.666
214.3
218.777
221.846
221.384
220.723
220.893
233.101
222.415
228.804
223.306
221.617
221.206
221.218
229.236
228.284
218.542
226.369
221.121
217.495
222.735
221.856
228.968
220.391
224.258
219.006
221.354
220.343
230.84
232.857
218.922
221.134
221.07
221.197
220.22
220.133
222.812
221.811
218.417
237.572
223.383
220.924
224.951
218.337
222.237
218.858
217.758
228.101
227.139
220.586
220.754
219.797
221.528
219.759
226.164
221.304
228.671
221.449
229.063
220.848
221.141
227.561
226.432
221.241
223.803
223.809
221.857
236.709
224.006
217.581
221.161
221.317
221.59
216.556
223.853
221.587
218.935
219.961
223.467
230.026
221.329
231.856
223.373
224.342
216.358
226.34
225.113
213.759
221.46
218.557
216.827
225.732
220.119
220.326
228.391
220.197
221.236
221.423
225.221
226.801
223.641
223.853
218.456
219.117
221.579
220.296
220.433
220.502
220.346
221.084
219.652
220.014
219.493
219.65
222.984
222.289
218.853
220.987
220.319
221.215
216.342
219.934
221.571
217.592
221.241
223.67
223.801
223.906
221.752
217.186
221.182
219.502
221.657
231.364
219.962
221.546
221.186
231.296
223.369
221.752
220.958
222.776
226.682
222.698
233.778
219.247
221.13
221.165
230.702
221.564
221.858
220.317
223.325
228.086
220.936
221.477
220.82
220.023
220.437
221.817
220.912
232.436
219.278
225.199
231.958
217.21
219.927
215.501
216.109
220.604
237.703
220.292
222.197
223.831
226.111
231.068
220.734
219.756
222.171
221.28
221.851
224.375
220.343
223.394
215.875
220.261
220.025
219.354
221.185
221.513
223.484
226.23
221.726
220.9
233.489
221.71
217.38
221.569
229.843
221.689
229.476
224.526
224.724
220.541
222.217
220.222
216.408
221.545
220.727
216.545
220.741
219.564
220.271
219.938
225.07
227.226
220.966
219.202
222.054
219.346
224.944
222.397
222.057
220.085
221.179
217.994
222.408
221.691
221.308
220.67
221.885
220.058
225.34
221.525
220.474
216.335
217.995
220.769
217.376
221.782
220.745
233.442
221.218
214.237
225.057
221.637
219.954
224.404
222.399
240.325
227.745
220.724
227.043
221.772
226.159
220.923
218.629
219.448
220.435
223.292
219.389
227.165
219.988
221.598
230.361
220.092
221.08
221.206
218.072
221.552
218.206
221.03
223.989
222.633
223.728
219.069
221.452
221.553
224.83
223.656
220.015
230.982
221.924
221.58
222.495
220.427
221.773
222.599
220.947
230.977
219.976
224.754
221.228
221.917
219.222
224.441
221.185
227.819
222.326
231.445
219.377
219.83
220.146
220.496
225.161
220.271
222.228
215.165
217.588
217.837
218.506
220.815
220.253
223.318
221.213
220.443
219.07
220.91
220.069
217.405
220.248
217.807
220.536
217.203
221.519
222.468
221.196
221.013
218.679
220.716
223.773
221.431
220.721
229.625
217.747
217.976
220.763
219.955
230.1
220.09
222.217
227.243
217.212
226.56
224.556
222.272
220.883
218.972
226.769
223.947
216.67
220.927
219.164
219.668
221.671
216.475
219.894
220.326
223.69
224.332
221.087
221.841
221.739
228.998
220.545
219.535
220.322
220.311
221.653
220.846
219.166
221.527
218.881
220.433
224.598
216.827
220.396
220.823
225.015
220.447
234.614
219.099
218.714
221.478
221.797
222.372
224.739
226.73
218.12
218.408
218.273
219.648
221.264
218.544
223.387
224.426
220.72
223.321
222.329
223.164
221.116
221.186
228.835
220.15
227.861
220.349
220.718
222.637
222.725
221.046
221.378
216.667
220.21
223.472
222.225
220.586
235.335
228.232
227.001
220.43
221.071
224.469
224.614
219.845
224.401
218.76
223.411
235.386
221.467
220.62
214.016
221.135
223.73
218.022
227.871
223.918
226.875
221.378
219.291
217.549
221.403
223.584
226.983
221.877
225.729
217.763
230.69
220.902
222.115
220.62
220.833
219.845
220.448
221.609
220.325
221.596
220.384
218.788
218.895
218.669
219.669
221.46
230.729
220.835
223.327
238.149
224.134
222.89
239.908
220.455
224.754
221.676
219.758
218.579
221.905
221.284
221.18
219.508
225.222
223.957
228.19
221.795
221.393
219.809
218.472
239.428
221.722
220.959
227.541
220.063
219.55
220.174
218.334
228.37
225.345
221.476
221.196
222.895
220.007
221.593
220.87
222.347
220.524
223.394
220.769
220.854
213.599
220.561
224.443
216.261
219.9
219.292
226.803
220.506
233.588
223.64
222.961
221.033
223.035
221.379
221.256
228.723
216.443
218.98
226.776
220.571
222.256
222.528
220.3
219.935
215.797
221.214
226.549
217.585
226.809
220.366
219.032
226.204
220.927
223.471
218.536
225.301
220.883
217.64
224.726
218.535
232.846
220.087
223.463
221.285
219.818
236.577
223.641
213.791
222.664
221.619
222.441
218.998
220.367
220.336
226.05
225.595
226.113
220.152
221.643
221.481
221.439
228.632
221.165
217.499
221.228
217.803
217.574
215.692
239.923
221.744
220.652
221.796
225.717
223.165
224.122
224.732
221.114
225.86
217.042
221.538
220.155
221.639
227.273
220.09
219.983
223.967
218.952
218.137
220.627
220.086
221.665
220.233
221.451
218.284
220.79
220.652
236.22
222.099
221.573
229.893
221.796
223.582
219.847
221.118
220.33
221.288
221.014
224.88
221.965
224.146
221.995
220.545
221.278
216.519
220.445
220.065
220.577
217.024
221.477
220.853
225.208
220.171
221.858
223.206
221.233
223.361
224.702
220.932
221.949
230.311
220.239
222.734
219.62
222.233
231.284
223.82
227.623
219.52
224.888
224.208
221.388
223.357
221.961
219.003
223.329
237.204
222.847
222.441
221.315
224.079
221.064
219.472
221.81
218.027
231.213
219.991
219.47
230.14
229.614
220.609
226.643
219.263
230.588
220.207
221.042
219.911
228.176
224.868
222.139
215.521
219.06
221.932
221.739
221.607
221.132
222.385
220.081
219.326
225.112
221.717
218.567
238.216
218.483
220.828
220.98
219.345
226.567
220.976
221.006
222.732
227.06
222.377
220.68
222.284
220.362
220.764
219.457
229.339
220.232
217.647
220.398
222.985
220.137
221.256
223.365
229.896
220.901
227.362
219.18
220.915
221.231
225.26
221.93
221.76
221.386
236.985
224.008
220.193
222.107
228.905
220.557
219.281
221.149
221.212
220.613
219.973
229.826
221.395
221.039
220.658
221.475
220.118
225.375
216.011
221.898
226.745
215.481
221.546
221.974
218.416
223.659
221.114
215.183
221.917
233.294
222.432
219.025
219.718
220.961
217.426
220.921
222.836
223.027
221.758
220.935
224.653
222.819
221.419
220.495
221.527
220.302
221.855
221.414
225.316
221.134
220.786
233.525
216.261
222.581
229.824
219.255
225.705
220.081
224.897
220.768
229.793
227.112
221.818
219.659
223.652
220.371
231.424
221.4
220.956
220.271
221.039
218.719
219.618
223.674
219.941
226.228
227.19
224.411
218.899
221.187
218.279
231.429
220.257
220.348
217.428
229.135
221.281
220.447
224.294
221.1
221.384
220.185
218.49
224.746
226.536
218.086
223.822
220.432
222.071
224.021
230.184
214.137
220.744
220.052
221.925
224.982
222.542
221.432
224.745
221.105
221.322
217.155
218.393
217.845
220.984
218.412
221.462
220.835
218.666
221.247
219.941
223.097
219.842
221.015
222.837
219.858
224.947
219.719
221.875
233.702
221.083
220.395
227.76
224.801
221.327
228.922
234.173
220.582
221.652
218.894
221.792
217.561
223.833
233.768
219.599
227.324
226.905
218.825
220.177
216.513
227.651
221.605
220.245
221.937
221.024
219.094
220.843
220.279
226.427
225.35
222.528
219.297
223.806
219.059
222.897
220.115
220.707
222.483
220.542
220.734
220.919
225.136
219.941
224.688
221.214
221.739
226.77
220.505
216.465
225.756
220.517
218.424
220.239
218.085
220.262
221.358
220.981
221.425
225.135
216.384
217.238
220.182
219.205
221.402
222.284
220.979
219.427
217.271
220.143
222.701
219.627
220.814
221.274
220.432
221.36
219.93
221.758
220.856
217.907
219.459
225.423
213.628
216.803
222.848
214.289
220.36
221.21
220.917
221.4
220.633
222.726
227.553
220.981
229.164
220.672
219.565
221.465
219.044
217.534
221.917
221.198
219.986
217.637
222.677
221.41
217.494
222.402
219.513
220.17
225.614
220.081
221.319
220.577
219.758
223.589
222.234
215.815
219.531
218.726
226.439
223.193
221.221
220.573
220.718
221.569
215.003
234.09
223.686
220.214
220.616
215.812
220.318
220.998
223.873
223.569
220.462
222.101
220.809
233.098
221.585
221.161
224.224
221.877
225.076
221.739
225.791
221.456
221.12