# vtk DataFile Version 3.0
vtk output
ASCII
DATASET POLYDATA
POINTS 10000 float
-22.1332 -36.5164 8.25108
-21.2341 -33.644 12.0741
-21.6445 -31.3413 10.4528
-22.6493 -38.1512 14.3892
-21.2389 -32.344 11.1133
-21.8628 -37.7547 13.5465
-21.5925 -36.0404 9.46554
-21.1128 -30.5282 10.4526
-21.2584 -31.5335 10.2617
-22.1636 -29.7404 8.7855
-23.869 -31.6302 7.98102
-21.8122 -29.4037 9.28252
-22.3757 -36.6195 13.6096
-21.1016 -34.0709 11.8392
-21.2426 -37.9053 12.2281
-21.8332 -31.5057 10.56
-22.1672 -33.4227 8.36431
-21.1431 -32.2702 13.1966
-20.9057 -33.0552 11.1893
-21.3541 -33.335 11.3431
-21.4927 -39.6871 7.74932
-22.2565 -36.9698 13.8177
-20.5596 -32.6449 11.9365
-19.343 -42.6885 8.69452
-22.6746 -34.1171 9.06592
-22.1652 -36.4199 8.10067
-22.8504 -34.1132 7.71109
-23.2076 -37.6878 14.6067
-23.0555 -30.0653 8.63512
-20.9449 -32.2259 11.8689
-21.0873 -38.7176 7.97764
-21.3454 -33.2019 10.6369
-23.438 -31.4808 8.29105
-22.2291 -33.8535 8.78015
-20.004 -28.9417 9.8226
-21.6083 -33.5102 11.2797
-22.9747 -32.18 9.03185
-19.3733 -31.8353 11.7571
-21.7368 -34.4255 11.1286
-21.2524 -36.2676 12.0782
-18.9513 -44.3301 8.22387
-22.2394 -35.5071 8.3696
-21.2077 -31.8564 11.0593
-20.9321 -40.4468 11.3325
-21.9123 -30.4747 9.92891
-21.9378 -32.5905 10.2783
-22.0165 -33.5766 10.0543
-22.3459 -31.3135 9.82129
-20.6456 -30.9995 10.5722
-23.7058 -33.7685 7.60619
-21.2404 -34.8585 11.4572
-21.8244 -35.1804 9.73874
-22.0832 -33.1534 9.42356
-22.4049 -33.3869 8.21019
-21.4772 -36.7948 12.1979
-20.7571 -39.1668 9.34197
-21.7909 -35.6679 13.373
-24.019 -32.5674 7.09203
-22.3131 -35.7556 9.33964
-22.014 -30.936 10.2159
-22.6943 -33.5466 9.1239
-22.2754 -32.2772 9.43814
-23.5516 -31.6493 7.44209
-22.3323 -35.1253 10.285
-21.4176 -36.827 9.91566
-22.1993 -35.6213 8.60133
-23.3612 -38.2618 14.8298
-22.1807 -32.7119 9.80324
-27.3959 -38.3053 18.0537
-22.4378 -38.7539 14.2922
-21.4311 -33.8322 12.4584
-21.0402 -39.0619 9.11481
-20.4368 -32.0213 12.2948
-21.7737 -36.654 9.05821
-22.6776 -37.7961 14.1775
-24.3952 -31.6475 6.89053
-21.9192 -33.7101 10.937
-20.987 -40.1047 7.92295
-21.3206 -31.7567 10.7049
-20.7806 -42.5832 7.80699
-24.3522 -30.5675 7.39645
-20.3068 -43.149 7.80511
-22.3898 -35.1925 9.29491
-20.9568 -32.2301 11.2245
-20.9268 -30.6394 10.2514
-21.7021 -35.5493 13.0428
-22.7021 -33.729 9.38365
-20.8779 -28.8736 9.4633
-20.8644 -38.6371 8.63897
-22.3566 -36.2278 13.5386
-19.3197 -42.3655 8.46943
-22.7715 -32.1002 8.58889
-18.7062 -30.8648 10.79
-31.7608 -38.0788 19.4248
-22.2445 -34.8718 8.82813
-21.9356 -28.4722 8.52143
-22.4841 -37.1934 7.90164
-21.4976 -38.4847 8.27632
-19.8536 -30.2313 10.6199
-24.8896 -30.6282 6.58788
-22.8713 -32.5062 8.51138
-23.448 -29.8334 8.13124
-19.2314 -41.4516 8.76063
-19.5155 -29.9172 10.994
-20.0153 -40.6682 9.01386
-21.1826 -38.5889 8.9921
-20.5755 -34.6112 12.5786
-21.1502 -31.2941 11.0182
-20.8535 -32.2778 10.6314
-21.3733 -36.554 12.2048
-21.5154 -29.8014 9.40483
-20.5283 -32.2598 11.1398
-20.1352 -31.1936 11.7129
-21.2235 -33.3125 11.5055
-22.48 -31.2022 9.73712
-20.4025 -28.6013 10.0248
-21.6699 -36.6162 8.34856
-23.0644 -29.9508 8.52815
-21.9125 -34.8987 8.70452
-22.4034 -29.9003 8.71452
-20.0109 -32.557 12.5132
-23.7369 -38.7356 15.2565
-21.7743 -30.6081 10.0222
-21.625 -34.6893 11.8155
-22.1539 -35.7723 9.29944
-22.7432 -35.7784 8.00833
-18.22 -29.0927 10.435
-22.2197 -36.6183 13.0369
-23.078 -33.7698 9.1949
-22.2668 -30.4011 9.19716
-22.1063 -30.183 9.48744
-20.0105 -43.2735 7.93527
-22.6949 -31.2164 8.61997
-21.6886 -36.7324 11.6948
-22.2953 -30.1799 9.36926
-21.7149 -38.0179 8.68524
-22.5926 -32.7975 9.07807
-21.5347 -33.6421 11.115
-20.8237 -31.9667 10.9551
-23.1955 -31.4971 8.736
-22.5724 -32.2342 10.0491
-21.5843 -42.4628 8.04438
-20.7868 -32.871 12.0877
-24.3461 -39.1479 16.3074
-23.1296 -31.1918 9.5066
-22.3422 -36.8903 14.0712
-22.2235 -33.7186 8.49124
-25.3226 -30.1776 6.42353
-22.7032 -33.6049 7.77055
-24.25 -29.7844 7.03373
-21.1382 -37.3841 11.8643
-22.1119 -39.5043 8.11083
-22.0633 -42.9602 7.43365
-23.3356 -37.9945 15.1091
-21.9433 -33.4689 11.1674
-22.6094 -31.4555 9.80544
-21.2486 -37.7689 8.19615
-22.7601 -31.9838 9.36993
-22.5844 -32.3859 9.76324
-21.6908 -33.736 10.6411
-22.4815 -32.2917 8.79121
-20.1017 -31.284 10.8074
-19.9312 -41.4539 8.27586
-20.1668 -31.699 11.182
-22.1831 -35.2345 13.0143
-23.1871 -35.7264 14.4857
-23.3995 -32.601 8.3624
-24.3955 -29.2442 6.60297
-21.282 -39.4031 11.001
-19.8128 -41.9021 8.74555
-22.907 -31.1947 9.98063
-23.161 -32.6636 8.96882
-23.4242 -37.4951 14.5774
-24.3127 -39.2529 16.5152
-22.722 -32.2693 9.96347
-22.1093 -31.1114 10.9596
-23.717 -31.7133 7.60604
-22.8375 -31.0398 9.25526
-22.4834 -29.9037 9.12541
-23.2988 -30.0257 8.20457
-22.9126 -32.7823 9.44715
-22.5788 -29.8187 8.94117
-23.6218 -30.9086 8.33427
-23.2367 -28.1944 7.63517
-22.5051 -33.655 9.68844
-21.5888 -33.7069 11.418
-22.5709 -32.1982 9.37028
-19.412 -30.84 10.6994
-20.9584 -34.3737 12.1104
-22.8353 -33.8191 9.75637
-22.6099 -29.6755 9.32254
-21.0905 -29.7417 10.0609
-21.5635 -30.1951 9.6468
-21.0574 -33.8702 11.6144
-23.6339 -38.4027 15.2156
-22.1064 -30.6225 9.9598
-25.268 -49.7795 7.32483
-21.7356 -33.006 12.6806
-20.0164 -31.813 11.2071
-22.8577 -30.0947 9.29044
-23.1379 -30.6062 8.32688
-21.8144 -34.4301 11.9198
-23.8115 -32.5579 7.666
-24.9735 -31.6056 6.95808
-21.4479 -32.3805 10.5947
-21.9043 -33.3726 10.2273
-23.1533 -31.2083 7.83048
-23.3033 -33.2328 8.63196
-22.9371 -28.6278 8.49881
-23.8126 -39.6845 15.5131
-20.1286 -39.8784 8.3696
-23.7764 -34.3468 7.31216
-22.7916 -30.2842 8.49517
-22.9003 -31.2513 8.74139
-21.9019 -36.0935 8.90586
-20.0922 -41.9908 9.01445
-21.8426 -28.4736 8.53108
-22.2767 -33.8214 10.1229
-22.1372 -34.4531 10.8079
-21.8161 -38.0139 8.35051
-22.0148 -35.1458 11.1497
-21.7783 -37.6855 10.8864
-21.217 -38.4658 8.88421
-22.2946 -31.7892 10.0068
-20.8971 -30.453 10.2807
-21.8919 -34.7391 8.67559
-23.1214 -34.4194 7.65749
-21.9839 -36.3844 9.56589
-22.3156 -34.6081 10.0348
-21.1475 -30.5065 10.0041
-21.3254 -35.0184 11.9977
-22.1052 -35.0713 10.1162
-22.451 -31.8466 9.57427
-20.4505 -39.648 9.11162
-22.8238 -31.7224 8.87724
-24.1037 -30.4008 7.39901
-22.8488 -30.8078 8.56045
-20.6397 -32.0783 11.6921
-22.0646 -34.9953 8.95855
-22.6833 -35.0012 8.44985
-21.6809 -29.4648 9.77711
-22.4131 -30.9088 9.64013
-19.9096 -43.4362 9.46838
-20.6315 -31.2667 11.4463
-21.5424 -30.4236 10.3277
-20.4216 -42.3944 7.51185
-22.4461 -35.6179 9.03293
-21.7553 -31.5263 9.99598
-22.3527 -34.9976 7.9885
-22.7531 -34.2943 9.14008
-20.2454 -40.4614 10.5848
-23.0294 -33.0953 7.43342
-21.6452 -31.0604 10.3777
-19.8152 -29.4601 10.7599
-20.7673 -40.5299 8.2312
-20.8144 -40.3659 7.96658
-22.9846 -32.4828 9.37089
-20.0799 -31.0556 12.9229
-23.5221 -39.0828 15.3583
-24.2558 -27.1711 6.56402
-21.6734 -36.4501 9.65787
-22.6703 -33.5009 10.1343
-21.3117 -42.5315 8.48421
-21.4543 -38.361 13.5115
-22.2378 -31.4211 10.0839
-22.8803 -34.1897 9.06718
-21.878 -37.9914 8.27855
-21.5421 -36.6535 11.5921
-22.9345 -37.6615 7.78581
-21.2902 -37.8014 8.93072
-23.114 -33.8936 7.79636
-21.4027 -34.1666 12.8045
-23.1567 -30.1139 8.46412
-21.1055 -33.9957 12.174
-20.6587 -32.7402 12.0382
-23.0651 -32.265 8.92728
-21.3246 -37.6461 9.36329
-20.7976 -30.7647 10.6762
-20.9739 -44.0349 7.8496
-18.969 -45.9523 9.86471
-20.117 -28.1876 9.22606
-23.4572 -31.9906 8.04916
-21.0058 -38.6835 8.26585
-29.8857 -38.1856 18.6082
-22.6761 -33.475 9.76977
-21.0379 -30.612 10.3711
-22.1421 -35.7599 13.2952
-21.3637 -33.0352 10.7137
-18.7533 -43.8179 9.06353
-22.4041 -31.7611 10.1372
-22.1367 -33.2803 10.1005
-23.5032 -31.1911 8.66625
-21.9035 -33.7134 10.8808
-21.6746 -34.5564 12.9189
-22.6986 -32.5962 9.21983
-22.1022 -36.4103 8.51409
-22.3994 -32.6105 8.90009
-19.751 -41.0592 8.59931
-22.501 -33.5784 9.71276
-20.979 -28.6571 9.60528
-21.4227 -43.7736 7.91128
-20.2883 -32.6903 12.6522
-21.0985 -39.556 11.9494
-23.0449 -37.2726 14.2258
-21.447 -34.3012 12.255
-21.7742 -35.1739 13.0313
-20.8766 -30.6872 10.6377
-21.1852 -37.969 9.56483
-19.3509 -31.4472 11.58
-22.7268 -33.9043 7.67548
-21.5115 -38.0132 7.67244
-22.2279 -35.2512 13.4186
-21.3198 -39.0577 12.5971
-21.8811 -30.7595 10.2198
-22.1634 -32.128 9.90658
-21.9947 -32.9432 10.8273
-21.3536 -32.8405 11.3315
-21.3556 -34.993 12.2592
-23.1893 -32.5788 8.62933
-21.9042 -35.8446 9.63861
-23.1313 -30.7206 7.95115
-20.6935 -33.0204 12.3801
-19.1887 -30.1108 10.3391
-21.993 -40.2293 13.8268
-22.6116 -33.8596 9.37631
-23.3518 -31.9964 9.341
-20.6959 -39.0295 8.49126
-22.1405 -30.3333 9.25867
-18.9084 -43.7243 8.68841
-25.7442 -45.4795 7.1342
-25.1186 -39.1825 17.1504
-22.7637 -37.3593 13.7366
-21.2153 -32.8166 10.9303
-24.305 -30.5721 6.91455
-22.2385 -31.1277 9.55535
-21.0494 -39.7115 9.46258
-21.6828 -34.8307 12.0576
-23.1029 -32.2722 9.21798
-20.7108 -40.6506 8.79548
-22.4653 -32.9348 10.352
-22.5011 -34.2217 8.86993
-22.6053 -35.6445 8.64995
-20.4372 -31.7025 11.7494
-22.6757 -30.375 8.4745
-21.7983 -35.1181 13.0406
-22.5285 -31.1694 8.70365
-24.2867 -37.6425 15.6763
-22.25 -36.6435 13.5613
-21.4371 -35.836 11.7631
-22.8429 -34.5882 9.06948
-23.4673 -31.9976 7.97573
-22.881 -32.3074 9.18008
-20.4433 -41.5504 8.16235
-21.6114 -31.4167 10.0923
-20.6277 -32.6768 11.6418
-21.4089 -36.2353 9.28639
-22.9926 -30.8132 8.36243
-21.7706 -36.293 9.43951
-23.0536 -31.3105 8.83445
-21.8878 -36.4135 8.91323
-23.2738 -30.4311 8.74354
-24.8274 -36.1142 26.2367
-21.6421 -37.378 9.82288
-23.1498 -39.3021 15.0153
-23.0629 -35.679 7.56086
-23.4768 -30.7585 7.81584
-23.3907 -38.9156 15.2799
-21.9132 -32.1943 10.3932
-19.0288 -44.2187 9.22555
-22.2268 -33.8054 13.1814
-20.5293 -28.3346 9.23551
-21.551 -35.6991 11.3907
-22.6386 -34.282 8.09758
-21.5563 -33.5595 11.6152
-19.1335 -42.1924 9.35596
-26.0112 -38.7158 17.0182
-22.8913 -32.0297 8.7631
-21.2987 -35.11 12.2668
-23.0542 -38.3188 14.7602
-19.5305 -32.1409 11.6495
-21.2592 -34.5681 11.2628
-19.0946 -44.6771 8.67269
-23.5956 -36.0553 14.6373
-23.3032 -32.7391 8.51091
-29.5167 -37.925 18.2271
-22.2179 -35.1136 13.4112
[...]
POINT_DATA 10000
SCALARS t float 1
LOOKUP_TABLE default
224.597
221.246
220.772
218.068
221.194
219.176
219.278
221.222
221.09
224.05
227.946
222.267
219.193
221.31
219.309
220.617
225.139
220.444
221.438
221.028
227.349
219.026
221.783
220.487
221.183
225.633
229.005
217.846
224.623
221.616
225.951
220.774
226.007
222.825
221.744
220.696
222.174
221.842
220.05
220.224
222.897
224.128
221.244
216.764
220.777
220.307
219.867
220.572
221.493
229.789
220.618
219.266
221.092
226.038
219.791
218.044
219.924
234.08
219.41
220.539
221.251
221.249
231.798
218.566
217.922
222.796
217.526
220.449
214.739
218.054
221.012
218.885
221.475
220.106
218.282
235.95
220.071
226.04
221.052
226.141
232.489
226.03
219.813
221.497
221.269
220.231
220.426
222.42
221.709
219.34
221.927
224.324
221.08
214.263
222.009
226.035
226.781
223.935
221.38
238.68
224.507
227.662
220.411
221.131
219.024
219.721
221.556
221.309
221.487
220.028
221.974
221.773
221.661
221.248
220.683
221.585
223.966
225.163
222.678
224.267
221.623
216.972
220.653
220.621
219.546
226.398
220.471
219.508
220.66
222
221.558
225.099
224.416
219.208
221.722
221.559
221.882
220.615
221.494
223.662
219.89
224.129
221.595
216.142
221.038
218.756
224.231
240.21
228.803
235.571
219.397
224.655
228.303
217.312
220.315
220.449
224.683
221.179
220.321
220.185
223.428
221.722
223.361
221.83
219.991
218.281
225.161
239.135
216.499
220.281
220.15
222.193
217.817
216.015
219.899
220.688
230.541
221.629
222.435
227.049
220.679
223.312
225.926
231.989
219.97
220.763
221.201
221.486
221.335
219.568
222.111
221.248
221.47
221.338
217.074
220.598
225.356
220.82
221.872
221.935
226.067
220.574
229.793
235.459
220.85
220.079
229.18
223.48
226.3
216.679
223.06
231.747
225.188
223.782
221.102
218.627
225.972
219.51
219.366
223.545
219.344
217.166
220.352
220.153
221.288
222.904
229.25
218.655
218.912
221.081
220.785
218.734
220.901
218.763
223.054
232.526
224.746
221.792
221.385
223.739
221.524
220.967
216.512
221.618
220.965
228.391
220.574
220.559
226.817
220.714
216.012
231.371
220.79
221.185
223.777
225.682
220.928
220.53
216.89
240.706
218.564
219.374
221.062
219.207
220.27
221.068
224.021
219.255
227.434
220.363
228.463
220.872
225.395
221.275
221.682
222.586
218.626
221.398
224.998
214.726
223.277
227.411
223.985
214.352
219.818
221.238
219.717
220.81
218.246
220.1
219.906
224.082
220.037
220.541
221.332
222.984
222.858
221.392
219.967
222.303
224.531
221.516
218.086
218.213
220.937
220.278
221.362
218
221.662
229.343
228.251
219.699
218.968
220.636
220.395
220.199
221.128
220.818
223.802
218.904
228.501
221.531
221.178
218.147
220.4
221.052
222.453
221.917
220.307
228.842
215.597
218.667
221.048
236.173
221.191
217.386
220.55
221.298
220.17
219.779
222.074
222.463
221.794
225.268
220.262
224.059
216.675
219.286
220.147
220.84
227.897
221.51
224.007
220.712
221.827
219.614
225.804
219.069
223.297
220.925
224.007
217.041
217.575
217.204
229.557
229.378
216.998
220.416
217.189
220.011
223.166
219.677
226.316
220.965
217.302
215.508
223.478
220.832
217.674
222.025
220.596
219.905
217.982
224.279
214.358
219.725
221.693
221.516
221.476
221.047
221.511
220.321
219.631
221.179
220.21
220.474
219.004
221.751
220.755
221.481
220.774
223.491
224.37
221.222
229.759
216.172
226.097
227.064
221.354
215.331
221.755
220.935
227.059
219.335
220.348
221.484
222.047
219.473
220.567
222.264
224.361
220.527
219.559
218.107
225.464
223.955
220.149
226.139
230.407
221.126
222.046
223.25
223.748
219.339
220.594
218.821
220.009
227.706
221.346
218.626
219.952
221.587
222.62
221.356
219.786
218.627
226.406
220.869
220.334
219.894
221.008
221.029
221.246
223.045
229.007
220.521
220.393
220.267
220.005
221.052
244.85
227.037
221.301
221.41
226.007
225.829
220.628
221.338
219.314
219.256
221.286
219.718
221.597
220.965
221.723
225.07
219.664
219.253
221.371
236.289
219.804
225.732
220.513
219.038
220.732
231.306
223.445
217.306
220.634
226.49
245.538
224.19
227.852
217.602
225.187
220.367
220.839
225.112
218.428
222.699
223.525
221.151
220.873
221.238
220.2
221.19
221.387
221.418
219.229
219.232
220.347
225.724
218.72
219.003
224.922
221.579
219.966
221.659
218.791
220.79
221.178
216.102
221.439
218.681
231.958
221.462
221.556
220.827
227.331
221.884
220.658
225.739
222.135
225.413
220.739
219.69
228.372
216.358
219.061
218.806
226.619
224.017
219.637
222.7
229.35
221.489
223.057
220.935
218.001
220.935
223.998
219.184
225.35
214.081
226.922
223.146
220.296
230.128
221.552
221.23
221.12
221.662
219.928
221.685
221.631
225.422
219.689
223.064
217.924
220.559
224.059
219.761
220.173
222.507
221.685
221.563
216.256
220.297
220.639
221.617
229.701
220.012
220.433
215.706
221.109
218.55
225.985
222.275
219.402
216.717
219.848
220.882
221.78
220.774
223.25
221.567
222.078
230.385
227.999
220.523
223.825
221.439
221.7
221.017
220.249
225.036
225.891
223.944
220.611
221.377
220.527
220.629
221.657
224.316
218.681
221.664
219.618
226.885
220.9
222.267
221.758
220.879
221.997
222.356
220.781
221.159
220.871
220.432
228.072
223.954
225.459
219.983
220.624
221.666
219.992
238.84
220.735
232.699
219.694
222.671
220.597
220.895
222.077
220.59
220.384
221.601
224.501
221.735
220.313
218.855
221.303
220.814
226.539
220.635
234.745
224.073
220.916
228.028
223.329
217.699
220.004
220.435
226.995
221.701
221.516
222.516
230.977
221.255
217.191
219.81
224.507
216.097
220.21
223.713
217.237
221.201
220.098
220.89
221.428
221.237
221.384
217.835
231.6
221.251
218.752
220.02
221.737
220.479
225.011
231.443
221.235
220.764
220.46
223.17
219.987
225.236
221.397
219.8
225.684
222.44
227.231
220.735
226.915
221.197
221.125
221.694
219.922
220.85
220.92
221.712
221.209
220.471
217.995
216.939
227.082
221.327
221.857
219.484
220.76
219.989
225.898
219.529
221.025
221.214
221.455
224.16
220.604
221.278
221.367
227.981
220.993
224.05
218.215
218.897
229.641
219.886
220.622
241.104
221.475
220.523
233.008
229.462
222.292
225.989
220.517
221.745
221.461
217.76
219.44
213.858
221.099
218.922
221.09
220.53
221.272
227.478
220.436
221.394
219.387
221.959
239.983
229.179
225.43
217.1
229.525
226.644
221.93
225.891
223.698
230.23
223.047
220.189
221.373
221.326
225.509
221.78
224.737
227.809
220.157
222.853
228.835
219.164
223.144
220.389
222.155
221.393
228.588
218.913
221.128
219.794
220.913
218.396
220.459
219.043
221.269
221.005
219.481
221.927
240.265
216.881
221.38
230.314
221.939
213.955
219.496
219.507
218.551
217.046
218.442
219.773
221.182
219.664
221.616
220.521
219.081
225.256
225.355
230.675
221.197
227.317
229.568
220.33
230.121
228.948
222.222
226.881
219.083
224.763
221.398
219.406
227.22
221.018
221.113
220.476
228.94
220.04
221.577
223.408
219.334
221.408
225.879
221.272
220.18
220.165
220.849
220.944
220.75
224.649
220.706
221.524
220.811
216.903
228.708
220.245
219.206
221.156
220.713
220.742
221.833
221.478
222.988
229.223
219.815
221.624
221.433
220.479
221.543
221.89
221.724
228.11
221.334
215.263
220.706
221.37
222.542
216.521
221.218
220.582
221.505
221.159
219.552
229.796
224.428
219.555
220.503
217.195
221.619
225.245
220.451
219.988
224.208
218.857
213.84
221.503
226.75
218.686
221.332
220.197
218.132
222.781
220.462
221.105
219.036
222.436
222.81
222.506
221.307
221.791
221.604
220.058
221.747
219.42
220.652
221.426
221.17
220.557
228.523
220.841
217.173
219.376
220.603
221.135
228.307
228.568
220.577
218.195
221.582
216.921
219.861
222.02
222.495
223.95
220.136
238.141
221.233
225.802
219.446
222.841
215.683
229.372
218.92
225.34
218.534
220.734
223.052
224.537
217.465
220.175
221.277
222.919
220.886
215.609
223.432
220.695
228.578
226.456
217.796
234.539
215.232
221.073
227.894
223.57
221.333
226.33
222.651
232.064
220.922
221.77
221.164
221.452
226.434
220.52
230.641
221.407
218.533
231.899
221.384
220.542
220.342
219.943
216.341
219.207
223.915
220.846
215.422
221.49
221.398
218.379
219.875
221.134
220.821
221.626
224.041
223.398
221.538
221.974
220.177
218.797
222.128
219.245
220.701
218.159
222.184
221.612
225.241
221.878
221.072
221.846
221.831
217.687
221.408
221.336
231.832
225.736
226.668
219.897
221.5
221.764
221.352
220.081
222.682
216.926
220.062
223.191
220.582
219.806
219.338
221.273
218.677
217.393
235.19
221.829
219.511
220.645
231.513
233.647
219.083
221.064
223.708
228.281
216.625
236.527
228.26
227.094
221.442
230.882
219.056
218.157
231.741
220.091
221.537
223.753
221.601
223.753
229.881
232.133
217.293
215.552
235.327
219.564
220.651
221.228
223.919
220.394
221.449
218.531
218.55
224.869
220.304
219.024
220.558
221.29
223.505
225.759
218.706
220.216
227.877
225.664
224.963
220.386
226.334
221.446
231.514
216.989
230.59
220.191
220.714
221.289
221.421
219.93
225.128
229.699
222.067
238.234
233.839
221.258
231.098
230.179
221.212
221.204
222.232
221.311
228.253
220.403
236.537
219.351
221.687
228.107
222.839
234.429
219.751
220.46
222.518
222.288
222.367
221.815
230.324
219.727
230.987
220.24
221.026
223.275
224.182
220.088
227.217
220.306
227.675
220.906
220.532
219.663
219.797
226.107
221.088
220.488
221.436
225.099
227.892
222.211
220.24
219.837
221.761
220.314
220.107
220.831
229.729
221.739
220.545
217.886
218.025
221.674
220.506
221.755
218.477
221.166
221.331
215.817
218.073
220.486
221.308
221.319
229.667
230.862
220.835
217.471
223.414
224.993
230.102
218.952
221.782
217.677
217.418
221.528
232.861
221.646
230.05
218.549
222.768
219.373
222.858
226.78
219.86
220.983
221.742
221.011
219.608
226.174
221.037
226.47
238.873
222.67
221.159
225.378
228.893
221.352
217.831
220.871
224.859
221.114
227.061
220.046
221.458
219.069
224.278
219.308
236.214
221.499
220.494
227.086
221.406
223.916
218.627
224.4
219.751
218.897
222.942
221.688
222.11
219.931
222.015
223.099
223.421
220.434
221.97
214.329
220.032
224.213
221.306
216.159
224.254
225.46
221.528
220.975
221.803
217.932
220.36
219.807
220.021
220.41
226.582
215.356
216.552
219.996
220.532
220.896
227.587
221.865
216.206
222.347
223.873
222.448
218.969
221.375
220.543
231.068
221.038
220.337
217.647
228.825
221.345
219.311
218.635
221.659
225.668
226.557
220.985
221.37
220.94
221.245
220.147
220.32
219.537
230.947
220.845
217.844
219.616
219.734
230.252
221.25
219.938
220.414
218.089
221.247
226.69
224.853
214.093
221.571
221.398
219.624
221.165
230.021
224.913
220.086
221.26
221.04
219.6
221.086
226.107
228.196
221.932
221.957
220.57
224.509
224.904
225.471
218.751
222.666
218.229
235.801
222.499
226.923
221.638
220.866
230.929
216.681
225.03
221.37
220.867
221.266
214.34
230.025
216.903
221.486
219.779
223.637
221.653
227.734
224.411
227.457
217.632
220.218
218.861
220.947
221.869
220.937
222.012
220.575
221.689
228.661
221.567
217.208
222.561
220.149
219.438
220.892
221.521
228.154
223.106
220.684
221.575
222.229
218.565
219.219
221.143
223.942
221.088
223.931
222.642
220.653
220.513
220.516
224.679
222.824
224.091
221.129
224.61
221.226
220.46
221.008
236.463
221.115
222.275
219.928
219.548
219.645
220.649
222.104
217.481
220.985
216.315
220.862
220.315
220.968
223.527
220.475
219.626
221.758
225.122
232.573
221.374
215.942
223.274
227.486
224.318
219.496
221.352
237.502
227.199
221.82
221.495
224.158
221.058
230.034
223.724
229.635
222.592
221.101
219.761
229.431
233.018
222.383
220.443
220.481
219.211
221.106
233.557
218.673
227.958
221.985
233.328
220.172
220.383
221.082
225.903
221.456
220.073
220.367
221.049
220.97
220.539
227.314
222.154
221.368
219.331
220.507
218.967
228.017
223.661
220.441
217.217
220.809
219.233
217.217
216.628
219.67
220.261
221.291
222.919
217.773
217.926
221.329
219.328
221.392
220.719
221.139
224.722
220.573
219.675
219.92
221.062
230.036
220.98
223.607
231.519
221.166
224.771
231.825
228.091
224.178
221.235
220.633
218.801
221.255
219.342
219.744
220.305
235.339
221.457
236.079
228.123
220.168
225.919
225.075
220.023
219.804
217.727
220.177
219.966
219.224
220.473
219.697
223.121
224.065
221.469
220.481
221.943
229.109
220.263
236.175
222.049
221.343
220.745
221.271
222.909
223.724
220.947
220.762
219.814
223.411
220.235
220.996
221.852
219.479
220.519
220.863
224.946
221.005
220.313
219.335
223.909
220.514
224.813
220.464
222.972
218.16
220.383
221.02
226.593
220.594
218.131
214.091
231.907
220.24
220.691
218.053
218.678
228.598
225.275
220.865
223.965
222.385
220.987
220.97
225.59
217.771
221.107
227.503
221.53
217.448
223.365
220.998
229.498
223.304
223.39
215.587
221.003
220.678
228.051
228.757
219.858
220.612
220.52
219.749
218.053
219.533
219.917
223.3
220.493
225.584
224.477
221.607
222.88
218.695
222.155
220.592
217.785
225.647
224.788
220.998
220.498
221.63
220.147
217.199
229.876
221.545
230.658
221.172
226.568
219.769
220.424
219.985
231.908
220.683
226.571
225.594
221.834
226.544
218.185
217.872
216.998
222.69
220.791
223.848
221.592
221.889
220.996
219.504
225.792
224.248
224.116
219.386
222.697
226.041
217.501
233.073
221.309
213.827
227.833
223.704
217.831
224.317
221.457
222.631
223.14
219.415
223.985
221.375
225.834
224.644
223.026
218.398
218.378
218.273
221.152
220.171
221.245
220.175
222.356
222.592
219.914
219.392
220.197
223.463
221.079
221.912
224.927
220.198
220.191
223.896
221.146
221.366
219.645
224.827
220.418
217.673
222.653
223.824
221.323
217.084
216.44
218.573
221.354
221.304
226.371
218.172
221.173
236.114
218.903
219.702
221.47
219.445
221.791
230.076
225.081
221.527
220.852
221.447
217.138
221.961
221.403
222.11
230.657
217.518
218.747
221.498
222.202
220.884
221.168
224.925
221.052
230.26
225.72
223.83
228.574
218.955
220.378
219.668
217.913
221.116
228.727
224.987
219.572
226.202
225.123
223.371
221.296
219.206
220.377
220.617
217.851
223.503
220.902
221.546
216.066
221.672
222.957
221.114
221.283
236.32
221.354
230.457
228.185
221.867
237.747
221.603
228.577
219.795
218.134
221.81
224.946
231.735
217.307
221.766
224.601
221.007
216.896
221.461
221.481
216.383
220.895
221.995
222.062
221.872
234.852
223.548
222.837
221.439
223.287
219.615
225.178
219.531
226.041
218.689
229.518
221.279
226.167
221.582
221.196
219.531
221.557
221.793
223.208
221.573
223.191
216.229
219.181
220.632
222.448
221.064
221.407
224.11
220.625
214.329
228.46
221.005
220.354
217.938
222.118
223.346
232.209
221.055
218.933
221.842
226.815
221.918
220.142
219.798
222.7
233.049
221.27
217.652
221.29
221.249
228.956
221.32
223.604
221.318
217.844
220.617
218.825
227.491
223.321
224.418
222.478
217.265
221.766
220.46
224.891
233.708
220.908
224.669
225.114
221.283
222.344
218.186
219.04
221.637
218.871
229.083
220.724
225.042
220.281
219.514
216.58
224.13
218.768
228.043
222.927
230.413
217.461
221.893
217.274
228.777
230.693
219.78
224.938
215.318
217.001
225.368
229.909
221.149
222.743
231.817
221.525
222.157
222.252
220.84
236.855
216.907
221.312
218.773
221.18
217.255
219.414
219.75
220.489
221.245
220.22
221.462
223.53
219.857
224.999
228.227
222.517
217.898
221.857
221.735
226.514
224.406
220.742
221.74
217.022
223.557
222.534
225.234
220.367
221.404
223.378
225.408
216.932
220.964
221.169
220.262
221.85
216.283
219.257
220.463
217.294
219.969
220.382
221.711
220.723
221.43
220.489
218.555
221.536
228.192
221.602
220.909
219.403
221.046
220.36
220.537
220.388
216.356
219.787
224.441
231.77
220.88
224.153
218.559
226.866
220.905
220.147
220.995
219.127
225.435
216.922
222.035
229.722
219.178
221.585
228.41
229.126
235.813
218.44
223.834
227.837
222.4
226.639
222.192
229.475
222.348
220.752
219.445
221.744
220.741
217.548
221.325
220.891
223.581
223.528
223.338
221.407
220.959
221.378
242.615
227.882
221.051
222.394
225.551
225.351
220.284
228.214
220.535
231.249
225.461
221.292
230.689
213.876
221.023
219.174
218.215
220.88
221.986
226.197
221.311
224.564
217.825
220.53
218.976
225.365
219.187
218.822
217.384
219.817
221.676
220.718
220.047
218.214
220.586
219.119
220.845
220.808
220.016
219.739
220.689
219.423
219.237
223.446
220.992
230.997
221.373
229.809
227.089
223.543
226.326
223.26
219.998
224.214
221.278
218.004
218.438
220.684
221.588
221.4
220.708
221.987
224.73
221.222
221.766
221.08
219.495
218.392
229.192
221.664
221.139
219.323
219.929
220.301
217.946
219.528
222.182
231.118
226.543
221.792
224.104
230.184
223.233
220.794
224.546
219.878
226.262
221.449
219.341
213.66
221.458
224.503
217.531
221.275
221.211
225.488
219.284
223.161
221.621
225.778
220.837
221.743
221.981
215.688
220.382
217.97
219.444
227.954
220.382
219.406
223.337
221.036
217.457
215.868
220.312
227.885
218.724
221.67
221.67
219.006
221.081
221.361
219.238
220.822
223.719
219.7
222.885
224.69
225.933
228.256
225.176
227.837
220.783
221.248
227.713
228.251
213.977
223.499
221.946
221.857
220.369
218.761
220.142
224.524
220.08
229.026
219.861
221.314
221.744
221.83
228.204
221.132
221.927
220.354
218.736
220.167
220.26
224.004
221.682
221.602
224.38
216.759
221.648
220.895
222.443
221.569
220.529
220.575
221.926
220.938
221.262
222.288
219.762
221.049
221.32
224.62
218.845
226.191
220.369
220.03
220.116
220.7
218.589
221.038
219.998
229.122
220.421
218.486
224.977
218.99
220.906
219.101
220.434
220.649
221.086
220.786
221.321
216.423
217.809
220.104
220.181
221.397
217.397
226.481
220.183
220.71
226.45
221.588
221.808
228.031
220.479
221.291
226.195
221.386
225.115
222.977
220.801
220.873
231.076
220.402
221.944
221.342
218.624
228.215
220.391
228.099
220.65
224.112
228.448
220.022
216.226
224.318
219.983
221.845
224.91
222.328
222.297
221.75
225.506
221.586
219.407
221.308
221.134
220.461
224.47
220.743
222.431
236.455
225.568
229.608
219.512
222.91
221.003
222.073
220.329
236.219
221.639
220.118
215.354
218.747
221.159
218.78
220.86
219.497
221.017
221.274
222.594
226.215
223.952
223.055
238.374
220.646
220.773
221.763
220.188
224.999
219.9
221.501
223.522
222.101
228.754
220.445
226.572
220.357
221.071
220.42
223.185
221.895
230.122
221.197
221.781
219.614
221.817
219.08
232.965
221.717
227.961
219.378
220.495
221.623
221.547
221.054
218.238
221.408
245.777
227.882
218.971
227.632
223.486
220.243
221.383
220.648
221.726
220.559
221.264
232.597
218.62
221.048
218.436
222.979
220.057
227.225
216.355
221.263
219.514
215.76
221.682
221.424
221.456
221.657
224.151
215.381
221.346
229.467
221.269
221.813
221.461
220.663
221.31
224.009
216.973
225.89
221.619
221.435
219.54
238.344
221.481
221.28
221.499
220.111
221.56
221.386
220.998
229.145
221.403
228.71
217.999
227.284
217.22
220.65
225.529
220.323
235.563
221.12
227.661
224.947
220.422
222.198
218.358
219.812
233.869
221.324
229.564
221.859
221.162
222.926
222.448
223.625
219.688
229.239
230.11
223.49
217.776
222.228
221.108
227.087
219.184
220.412
217.458
224.683
221.788
223.748
229.207
221.428
221.747
220.869
220.151
223.93
222.062
217.718
223.344
222.133
221.585
221.504
228.415
214.186
218.869
220.388
224.362
221.588
222.352
221.043
224.019
224.278
221.013
219.37
227.094
220.983
221.18
218.565
220.863
219.906
222.178
221.283
218.728
221.029
232.028
221.773
219.059
221.216
233.185
221.324
221.357
228.487
225.558
221.51
231.202
222.38
221.212
229.449
221.815
221.821
221.489
221.285
231.181
218.002
221.587
238.08
219.526
223.698
234.901
219.56
221.517
222.616
234.845
221.527
228.137
221.99
220.6
218.85
225.47
219.825
224.024
226.339
217.665
219.833
228.492
220.532
218.909
220.582
221.213
220.6
220.997
220.615
218.649
224.922
221.43
224.237
218.798
221.823
222.833
222.687
220.716
224.447
220.741
221.811
220.521
218.511
221.763
220.659
221.347
220.324
224.89
216.686
221.01
220.165
220.671
220.088
218.751
221.485
219.831
217.131
220.033
227.697
226.542
221.402
222.843
220.83
218.693
221.728
219.927
220.374
225.795
220.697
217.959
213.903
220.816
242.827
214.269
219.61
224.241
221.734
219.864
222.281
236.338
225.066
222.208
221.494
221.475
221.027
221.623
221.411
217.7
221.654
221.55
221.241
232.975
223.168
221.525
222.438
221.051
217.448
220.098
221.962
219.659
230.19
221.014
220.708
224.004
220.219
222.674
219.889
219.36
225.566
223.113
220.676
218.444
221.725
221.713
216.566
225.305
218.096
220.641
221.295
216.202
219.717
220.162
222.352
229.72
219.538
221.7
222.586
227.064
220.288
219.115
220.913
227.107
222.836
221.763
222.351
221.841
221.462
218.946
228.52
221.234