# vtk DataFile Version 3.0
vtk output
ASCII
DATASET POLYDATA
POINTS 10000 float
-43.4951 -42.1839 8.68102
-41.6091 -38.9305 12.3419
-41.8518 -40.9311 10.5433
-46.3485 -38.6891 14.973
-41.0758 -38.8437 11.2838
-45.8638 -39.0866 14.3881
-42.2781 -40.9692 9.55569
-41.654 -38.5058 11.317
-42.1568 -38.4222 11.0474
-42.7825 -42.7394 9.99205
-42.7998 -41.9476 9.30056
-41.8662 -41.7604 9.98522
-45.8163 -39.3193 14.418
-40.8741 -37.9957 12.133
-42.5701 -38.4315 13.6677
-40.6014 -37.6242 11.2047
-42.804 -42.6373 9.01798
-44.4209 -38.7718 14.1599
-40.8006 -38.405 11.2494
-41.324 -37.6573 11.7973
-46.6687 -43.2325 7.96299
-45.4209 -39.2647 14.4132
-41.9071 -38.5275 12.6018
-43.5869 -42.1962 8.74829
-42.8493 -42.7136 9.98882
-42.7781 -41.895 8.60918
-45.0896 -43.3104 8.47608
-47.6981 -38.9448 15.4618
-43.4127 -41.7336 9.68409
-41.2064 -38.832 12.6716
-45.2488 -42.7857 8.02423
-41.2278 -38.5624 11.0832
-43.4608 -42.0027 9.51653
-42.5657 -41.0752 9.59595
-40.765 -37.1419 10.8061
-41.759 -38.8573 12.7284
-42.2912 -41.9019 9.9488
-41.4089 -39.4265 12.1813
-40.7139 -39.1552 11.3782
-42.1633 -39.659 12.8443
-44.6949 -43.7582 8.43047
-44.1543 -42.3095 8.63632
-41.6278 -39.8767 11.7811
-42.0356 -39.7936 11.5261
-41.0839 -40.1018 11.0104
-41.3325 -40.9324 10.7819
-41.8281 -39.904 10.7558
-42.0862 -40.1597 10.8196
-40.8736 -37.0507 11.5974
-44.4171 -42.5955 8.18978
-40.7764 -38.2762 12.4965
-43.0509 -42.3914 10.1954
-42.441 -41.3974 9.98173
-43.8952 -42.7678 8.84599
-41.8525 -38.9334 12.9194
-43.6976 -43.342 9.41276
-43.6031 -38.6067 13.8149
-43.3988 -42.0851 8.50095
-43.0973 -42.9987 9.75525
-40.6753 -37.1945 11.0664
-42.2338 -42.1236 9.97317
-43.1267 -41.3419 10.0778
-42.6571 -40.5725 8.96693
-41.8638 -41.1245 10.5985
-42.4118 -41.1002 10.0144
-43.0658 -42.4298 9.22444
-47.9188 -38.9111 15.6289
-41.8806 -40.8922 10.5224
-51.7636 -38.9352 18.1547
-46.6002 -39.4311 14.7381
-42.4373 -38.6523 13.515
-42.7631 -42.1014 8.97995
-41.5514 -39.0364 12.9355
-42.5644 -42.5302 9.20482
-46.3799 -38.8665 14.7427
-45.9952 -43.7359 7.98161
-40.689 -38.743 11.4651
-46.1643 -42.2475 7.96022
-42.1306 -39.1888 11.7321
-47.4878 -43.4044 7.57679
-42.4847 -42.0921 8.5645
-46.2503 -43.227 7.66174
-42.3672 -41.6461 10.1258
-41.6046 -39.2475 12.909
-40.8852 -37.4919 11.0034
-43.9583 -38.5894 13.8101
-42.5756 -42.833 10.0846
-41.9983 -40.2577 10.6139
-44.2847 -43.1804 8.74528
-44.8103 -39.1579 14.0514
-43.8717 -41.6284 8.60975
-43.6829 -41.9975 9.89739
-41.2333 -39.3199 11.9759
-53.4669 -39.0945 19.2402
-44.157 -42.8073 9.54333
-42.2114 -41.0504 10.1856
-44.2899 -42.5005 8.07295
-45.1399 -43.8648 8.59506
-40.9982 -37.2119 10.7602
-44.408 -42.417 8.29366
-41.888 -42.4486 9.50583
-42.2538 -42.4599 9.40306
-43.4334 -42.4334 8.71535
-41.6812 -39.1973 11.6287
-43.9425 -43.9576 9.07288
-42.6333 -43.8232 9.21718
-41.7861 -38.7354 13.2632
-41.2287 -38.5385 11.1258
-42.3806 -39.7042 11.9389
-40.8854 -38.2952 12.6346
-42.1869 -42.3892 10.153
-41.2103 -37.7263 11.7889
-40.4936 -37.8455 12.2552
-42.0865 -39.0548 12.0597
-42.3846 -41.8852 10.267
-41.2535 -39.102 10.9584
-43.5533 -43.2576 8.57692
-42.0423 -41.8823 10.4122
-41.2103 -40.6953 9.22819
-42.2075 -40.4218 10.1296
-43.0354 -38.1395 13.6457
-48.6414 -39.289 15.6292
-41.9991 -41.0124 10.625
-41.276 -37.8227 11.705
-42.5295 -41.7089 9.99617
-44.4183 -43.5497 8.49955
-41.2743 -39.1531 11.2496
-45.3521 -39.3063 14.1749
-44.4016 -41.2909 9.72516
-43.5329 -41.6884 10.112
-41.332 -39.4885 10.4613
-45.2352 -43.9829 8.02144
-43.1321 -41.6243 9.43744
-41.3696 -39.3407 11.5786
-41.6866 -39.5117 10.8069
-43.3867 -42.9201 8.77488
-42.5489 -42.3084 10.4061
-40.9718 -38.1246 11.1914
-41.4549 -38.7048 11.6601
-42.1253 -41.6124 9.5044
-41.5177 -41.294 10.7801
-48.9691 -43.5619 7.88755
-41.8311 -38.6809 13.0223
-48.3275 -39.1023 16.8861
-42.7623 -40.6767 10.2905
-45.8799 -39.1846 14.5858
-42.7402 -41.8578 9.31931
-44.1818 -43.4869 8.56882
-43.1975 -41.8404 8.59512
-42.6629 -43.0023 8.8461
-41.567 -38.9724 12.6311
-45.8014 -43.0182 7.80632
-48.6513 -42.7903 7.0178
-47.7479 -38.7234 15.4286
-40.5644 -36.7437 11.2924
-42.1641 -39.987 10.5385
-44.7381 -42.1301 8.30416
-41.6574 -40.482 10.4805
-42.4562 -40.4236 10.5314
-40.8073 -36.7733 11.3412
-42.6114 -41.1922 9.43973
-41.126 -39.3872 11.7411
-45.9419 -43.3137 8.42355
-42.5942 -39.3152 12.1721
-45.3639 -39.2253 14.1251
-47.0672 -39.3968 15.1364
-42.0636 -41.2512 9.44317
-43.8109 -42.8314 8.8085
-41.8554 -41.4338 11.1387
-43.6868 -43.3288 8.75124
-42.1752 -40.1627 10.1622
-41.676 -43.1659 9.65348
-48.1551 -39.2244 15.7295
-49.6877 -39.4839 16.8433
-42.1142 -41.9862 10.7238
-41.6872 -39.3693 11.8967
-42.6173 -42.3343 9.38602
-42.5024 -40.9701 10.3313
-41.7124 -41.6671 10.0311
-42.8671 -42.3082 9.55962
-42.0753 -40.6078 10.5815
-41.8586 -39.2599 9.9577
-42.9009 -41.8974 9.54141
-43.5389 -42.3854 9.20784
-42.6579 -41.112 10.3515
-41.5057 -38.5335 11.8812
-42.5043 -41.6895 10.1452
-40.8 -37.7641 11.47
-41.2629 -38.3811 12.9972
-43.1973 -40.8578 10.2434
-41.0366 -41.0211 10.2486
-41.4254 -38.5857 10.9646
-42.1651 -40.4758 10.6307
-40.7794 -38.5782 11.9316
-48.8201 -39.3712 16.2256
-42.1856 -40.3703 10.6815
-49.1561 -43.76 7.00621
-44.8879 -38.8686 14.1868
-42.1661 -39.9972 12.0354
-42.4644 -41.2443 10.1335
-42.6832 -41.7484 9.45253
-41.3711 -40.0968 12.2939
-43.7975 -42.567 8.69434
-45.9355 -43.6156 7.78962
-41.4366 -37.663 11.983
-40.2228 -37.1622 11.1624
-42.5797 -41.7712 9.26053
-42.67 -40.5785 9.87874
-42.94 -41.2823 9.70155
-49.4895 -39.2777 16.2965
-43.3641 -41.179 8.2155
-45.6322 -43.356 7.84697
-42.4931 -41.968 9.6005
-41.9629 -41.8332 9.70217
-42.0853 -42.124 9.09142
-44.0188 -43.0272 8.94056
-41.6674 -39.9595 9.94895
-42.7032 -42.0847 10.421
-41.4825 -40.6516 11.4135
-44.1904 -43.6745 8.69643
-40.9356 -38.1467 11.6958
-40.3105 -37.3009 11.075
-43.0645 -43.3382 9.16208
-41.1955 -39.7822 10.9555
-41.4257 -40.1347 10.7791
-42.0526 -41.616 9.38458
-45.0405 -42.8434 8.04097
-42.5694 -41.7159 9.64644
-42.7325 -41.8233 10.031
-41.4189 -39.6785 10.7412
-41.474 -38.4784 12.944
-41.7437 -40.2722 10.4626
-42.2689 -42.6957 10.3257
-42.9638 -43.6104 9.28227
-42.3752 -42.0109 9.74637
-44.2667 -42.9001 9.00549
-42.8696 -41.8974 10.1101
-41.4571 -39.7939 12.6378
-42.07 -41.9212 9.62549
-43.1436 -42.5074 9.40664
-41.9317 -39.4118 11.2238
-41.5938 -40.1205 11.057
-43.1192 -42.7764 9.31821
-41.1092 -37.9498 12.2432
-40.7146 -39.0142 10.9689
-46.0606 -43.3408 7.57928
-43.2221 -41.6808 9.51044
-41.5418 -38.8196 10.8539
-43.726 -41.3462 8.36577
-42.5091 -41.6016 9.85771
-42.3664 -41.4723 10.7748
-43.2848 -42.6983 8.52603
-42.3524 -41.822 11.0135
-42.0742 -38.8736 11.3798
-43.3491 -43.2924 8.13229
-45.7873 -42.7351 7.95397
-43.0395 -41.5727 9.98649
-42.9291 -38.6892 13.6325
-48.3216 -39.3835 15.9522
-42.7988 -42.8143 9.21231
-42.5134 -42.3832 9.65452
-43.1855 -40.8307 10.1006
-46.1461 -43.155 8.06879
-43.941 -38.6329 13.8873
-42.2156 -37.8631 10.7853
-42.4517 -42.0786 10.1808
-44.5164 -42.9068 8.41599
-41.9693 -39.1644 12.2243
-47.1293 -44.4177 7.74179
-42.8645 -41.8228 9.12647
-44.8756 -42.145 8.65798
-43.276 -38.323 13.6063
-41.7254 -40.762 9.7087
-41.6143 -38.1759 12.9219
-42.1412 -39.1185 12.7255
-41.562 -40.9373 9.96943
-42.2661 -42.8154 9.36643
-41.501 -38.4107 11.5045
-47.406 -43.4171 7.54239
-42.5192 -42.2499 9.79691
-42.327 -41.8741 10.2715
-42.4041 -41.4412 9.3042
-42.9445 -42.4573 8.46229
-52.225 -39.0748 18.5903
-43.2864 -41.2186 10.2567
-40.7576 -39.8181 10.9248
-45.9839 -38.8394 14.1907
-40.7144 -37.5658 11.1872
-43.1009 -42.0445 9.03178
-41.4999 -38.0756 10.7923
-42.1358 -40.9759 10.391
-43.4042 -41.3839 9.68961
-41.022 -37.9587 11.5162
-43.8304 -38.3169 14.0696
-42.2071 -41.1873 10.212
-44.4844 -43.3953 8.58598
-42.9964 -42.2269 9.67613
-43.7232 -42.7975 8.55357
-42.7027 -40.8034 9.83007
-41.6729 -39.0483 11.0654
-47.6306 -43.0286 7.74559
-41.7701 -38.1727 12.9142
-40.9795 -38.5547 11.8132
-46.8278 -38.9113 15.1296
-42.1273 -39.1376 12.529
-44.306 -38.448 14.0475
-40.0983 -35.7235 10.8162
-42.2399 -42.0691 9.85087
-41.4096 -38.8722 12.0648
-44.9295 -44.3679 8.5067
-45.9313 -43.2333 7.89632
-44.6172 -38.6618 14.3235
-43.5732 -39.0729 13.6848
-42.1599 -41.15 11.0308
-43.8539 -41.8987 10.4669
-41.7876 -38.6917 11.0396
-40.7551 -37.7791 11.9222
-41.7117 -37.5897 13.0542
-42.7111 -41.5024 9.28578
-44.1376 -41.5963 9.88084
-42.4127 -41.4826 9.40819
-41.2559 -38.7352 12.5064
-41.0802 -38.9201 11.5651
-45.6002 -39.1469 14.3572
-43.3439 -41.5251 9.51613
-43.3823 -41.9617 10.3566
-44.5106 -43.0429 8.64461
-41.718 -40.9185 10.4265
-43.8373 -42.1618 8.61501
-49.3972 -41.9441 6.53106
-50.2924 -38.8535 17.5746
-46.2858 -39.1105 14.769
-40.9056 -39.2804 11.4118
-43.5686 -41.788 8.6121
-42.528 -41.9614 10.407
-42.4855 -43.1924 9.36192
-42.6249 -38.343 13.4549
-43.2362 -41.7972 9.91196
-44.6788 -44.1425 8.77174
-41.6311 -40.9286 11.5027
-43.4697 -41.8298 10.0445
-41.4176 -42.1647 9.11923
-41.2848 -37.9719 12.5805
-42.7271 -41.5565 9.83993
-43.4044 -38.3714 13.7846
-42.4888 -43.1303 9.64551
-49.3934 -39.5513 16.1248
-44.9527 -38.9057 14.3021
-41.4595 -37.8591 13.0611
-42.3608 -41.6735 9.8756
-42.6307 -41.292 9.4601
-42.735 -40.6011 10.1167
-45.3978 -43.0477 8.02578
-41.694 -39.3534 11.048
-41.483 -38.4569 12.4065
-42.8094 -41.0305 9.67319
-42.8929 -41.4759 9.46368
-43.4549 -42.572 9.65905
-42.9337 -42.0906 9.9698
-43.8726 -42.364 9.22851
-42.0759 -40.3871 10.0002
-50.1799 -35.2274 26.7907
-42.4316 -40.5074 9.97343
-46.9124 -38.7578 15.8349
-45.1998 -43.8967 7.83376
-43.6537 -42.6798 9.13172
-47.4724 -39.434 15.7765
-41.522 -40.282 11.0831
-42.8095 -41.3583 9.1965
-44.9894 -39.0538 14.4985
-42.3058 -39.8934 10.2793
-41.3095 -39.5442 12.4673
-43.4801 -41.8863 9.1638
-41.2884 -39.1839 11.5614
-44.2551 -43.1693 9.27378
-50.4444 -38.9755 17.8145
-43.1549 -41.1632 9.82344
-41.8492 -38.7251 12.926
-47.0255 -38.8977 15.1898
-40.8987 -37.4418 12.7274
-40.6084 -37.4354 11.5297
-44.1115 -42.6116 8.93551
-47.7853 -39.3218 15.2815
-42.7486 -42.7782 9.3891
-52.2145 -38.8471 18.607
-45.6662 -38.6216 14.4828
[...]
POINT_DATA 10000
SCALARS t float 1
LOOKUP_TABLE default
221.512
214.167
210.649
214.728
211.415
214.593
215.491
211.666
211.41
212.621
217.046
212.717
214.758
214.074
215.025
212.086
218.895
214.67
211.646
213.239
226.536
214.811
214.599
221.004
212.649
222.163
222.63
214.696
214.578
214.95
226.232
211.32
215.599
215.221
212.145
214.831
212.948
213.742
211.506
214.92
222.803
221.795
212.318
211.503
210.247
210.204
210.467
210.379
213.157
225.069
214.828
211.803
212.856
220.092
215.05
215.982
214.742
222.918
213.916
212.18
212.771
212.492
219.831
210.476
212.727
217.472
214.579
210.716
212.386
214.891
215.098
219.317
215.184
217.588
214.646
226.126
211.992
227.022
212.329
229.461
222.44
228.806
212.133
215.148
211.908
214.597
212.166
210.554
220.698
214.644
222.235
213.352
213.205
212.187
215.277
211.925
225.989
221.542
212.147
224.349
215.532
216.223
221.176
212.083
218.13
217.199
215.269
211.391
212.748
215.036
211.883
213.223
214.529
213.299
211.473
210.804
221.922
210.933
217.823
212.267
214.741
214.691
210.438
212.96
212.736
222.376
211.176
214.676
214.504
212.337
211.227
225.7
216.186
211.921
210.674
220.582
210.974
211.738
212.427
215.707
210.192
227.033
215.114
213.41
211.594
214.81
216.934
221.889
222.283
220.048
214.771
227.797
234.289
214.611
212.764
210.832
224.383
210.844
210.844
212.813
216.243
212.449
223.013
213.424
214.596
214.977
216.188
220.352
210.36
220.621
212.148
214.433
214.652
213.779
210.25
212.849
216.367
211.35
212.482
215.237
210.617
213.541
215.438
217.598
211.299
213.104
212.057
212.527
215.28
211.845
211.463
211.165
210.511
213.417
214.262
210.471
233.871
214.563
213.019
212.169
216.046
213.988
221.281
227.624
213.633
212.342
217.368
213.601
214.529
214.204
225.473
227.318
215.02
214.361
218.504
219.323
213.176
210.985
211.025
220.893
212.874
212.118
217.689
210.343
210.313
216.515
226.072
214.771
212.578
210.566
215.174
210.934
211.104
216.797
214.099
218.886
212.229
214.814
214.844
216.201
210.99
210.368
216.739
214.259
210.819
229.362
215.697
211.086
224.231
213.536
210.311
222.506
210.21
211.586
225.207
226.812
212.87
214.959
214.514
217.467
214.595
212.481
225.756
214.645
211.857
211.836
223.238
213.752
227.608
218.318
221.676
214.701
214.479
215.069
214.711
212.888
216.397
212.168
229.715
213.776
211.447
217.127
223.084
212.236
211.747
210.284
214.298
212.095
218.947
211.617
211.119
214.612
212.496
214.637
211.787
221.788
214.51
222.255
213.848
211.008
228.366
214.999
213.031
214.795
214.383
214.484
213.031
213.475
213.531
222.011
227.015
214.654
214.885
210.276
211.068
211.211
213.668
215.037
217.25
213.562
216.391
214.64
212.124
214.659
215.697
211.281
221.476
210.956
222.012
238.519
212.805
214.813
211.522
222.166
211.012
216.349
214.933
213.265
220.188
211.26
212.601
218.297
214.805
213.665
214.72
214.517
214.487
214.64
215.178
213.408
216.087
212.379
226.105
210.792
214.384
214.739
216.035
214.574
212.865
217.458
212.856
217.538
213.04
214.409
227.129
218.058
214.731
210.382
217.925
214.873
211.727
214.482
218.033
211.959
216.947
212.652
213.868
215.038
214.759
215.15
212.875
219.478
214.847
216.255
212.087
214.47
214.173
215.257
211.323
213.774
214.786
214.073
211.014
217.03
210.495
212.9
214.928
216.106
213.763
211.378
214.41
214.689
222.401
212.453
230.891
213.845
221.5
226.213
210.336
212.759
210.757
210.301
226.031
214.771
212.575
214.403
210.951
213.413
214.898
214.788
218.326
210.517
217.415
214.494
227.557
214.365
218.343
214.046
222.373
211.951
214.245
221.967
211.878
212.322
210.351
217.585
214.01
218.941
211.588
214.733
214.609
211.105
222.248
211.016
210.588
213.281
215.41
211.378
220.18
210.243
212.933
211.526
214.965
213.871
225.08
210.852
210.729
213.853
215.09
211.575
224.149
223.704
214.401
221.498
224.034
220.853
210.49
211.294
214.898
214.862
216.027
211.627
211.97
211.27
211.36
217.547
211.312
210.332
214.784
225.667
212.54
212.337
215.023
211.975
210.973
225.969
226.182
210.471
215.008
212.904
222.314
214.083
216.524
214.965
227.237
215.118
211.234
220.137
215.501
219.564
228.674
215.006
211.491
215.524
213.623
210.304
210.497
212.683
217.154
214.864
211.618
232.538
210.519
220.321
223.282
221.652
211.474
211.361
214.802
212.541
212.373
213.911
218.902
214.842
222.13
214.484
215.239
212.81
226.809
212.034
215.001
213.833
216.069
225.811
215.163
214.528
236.102
215.927
219.97
221.57
225.746
212.969
211.541
215.695
215.683
214.715
212.21
211.597
217.096
211.184
224.314
221.386
225.525
212.13
226.979
216.994
214.621
219.1
213.721
213.329
211.829
213.279
211.362
210.921
213.745
217.838
210.253
217.903
214.882
211.12
213.903
220.623
211.261
212.554
212.971
215.196
213.994
210.479
211.102
214.49
219.434
214.604
212.681
213.673
212.083
219.761
232.924
211.251
217.058
217.983
217.459
215.013
210.256
214.413
216.673
211.095
211.408
227.625
230.205
212.731
225.909
211.246
211.303
212.893
210.398
216.719
212.138
218.471
211.931
210.351
213.072
215.09
211.654
213.386
212.154
213.07
214.57
217.911
211.807
210.305
212.972
214.922
210.98
213.945
211.152
215.185
212.144
211.806
225.321
226.215
225.223
213.046
210.817
211.942
214.481
219.923
211.055
221.109
214.911
212.388
213.941
211.906
210.201
214.673
216.165
212.593
214.17
213.521
212.376
214.829
212.796
212.46
224.08
212.175
222.353
216.107
217.442
227.137
213.448
218.883
214.788
215.454
230.147
211.43
211.936
212.64
217.529
210.691
214.337
214.63
214.408
213.022
212.792
214.496
214.661
212.501
214.895
212.612
212.34
211.885
213.718
214.751
221.854
212.087
213.113
219.48
214.38
214.69
225.361
220.682
213.7
210.704
214.756
231.361
211.342
212.35
210.631
214.433
232.905
213.505
214.607
213.959
215.116
211.641
213.199
223.035
210.884
214.933
212.463
226.441
228.059
212.443
219.296
214.457
224.939
218.009
214.786
210.649
214.645
211.098
215.569
210.953
215.005
213.201
212.11
215.385
221.733
212.453
211.746
215.734
210.968
212.347
213.427
217.811
222.724
211.244
210.522
217.999
213.194
210.901
218.748
224.628
223.937
218.949
214.316
211.223
211.656
212.77
214.829
212.138
211.637
214.797
214.343
213.166
214.394
220.356
213.676
216.452
210.333
211.95
221.492
221.916
223.791
212.649
227.569
224.834
215.847
216.82
210.787
215.464
214.638
210.758
212.195
213.624
215.123
213.501
223.061
218.713
210.95
212.855
229.911
210.803
212.483
210.345
212.72
222.357
218.997
214.294
210.257
210.352
210.923
213.105
221.704
211.213
211.832
219.598
211.556
217.612
221.408
212.891
212.601
219.814
210.461
212.098
214.649
210.81
212.293
215.862
210.955
211.567
213.296
214.936
216.107
213.624
214.835
222.414
227.292
223.908
225.627
224.377
228.201
212.106
228.56
215.763
218.797
217.742
214.621
212.701
211.347
212.549
230.758
212.001
210.932
214.923
223.112
218.121
212.08
212.87
210.156
215.033
229.655
210.682
224.237
213.778
212.695
210.612
216.358
225.922
210.776
213.158
211.148
214.182
219.241
215.335
211.058
212.978
210.426
215.19
212.825
211.131
221.929
221.947
211.889
214.599
211.019
214.722
213.354
211.386
211.598
226.328
210.98
212.411
211.808
213.623
215.963
216.28
210.271
214.804
213.134
219.807
214.772
222.246
222.263
210.392
211.979
217.393
215.129
214.95
211.849
210.625
229.8
215.574
212.542
210.582
215.604
216.487
213.593
213.541
220.299
213.32
213.027
210.913
213.303
215.448
211.445
213.519
215.034
211.144
213.39
210.675
214.002
214.191
210.813
211.099
213.498
218.033
217.671
214.032
214.612
211.04
210.636
213.938
233.627
217.084
212.538
210.345
210.54
213.411
214.795
215.191
212.119
215.741
214.844
222.59
211.929
229.978
214.82
216.874
214.288
224.769
214.952
225.491
212.652
211.7
213.855
214.365
215.788
212.601
210.47
211.207
214.208
211.215
214.982
213.465
224.774
228.836
210.266
228.811
212.65
213.45
217.5
213.203
212.213
212.34
224.216
217.257
210.474
213.87
213.409
212.857
219.731
212.805
235.452
212.406
212.695
220.203
211.354
215.208
217.659
214.761
213.783
214.937
215.031
214.959
212.95
214.792
211.126
211.44
220.237
215.128
214.881
214.734
215.533
224.051
211.926
212.002
213.609
210.465
214.734
210.702
214.705
214.942
212.031
214.931
230.485
210.874
212.921
218.572
213.523
216.79
211.489
212.44
222.96
226.682
221.008
210.709
212.959
214.141
216.615
220.838
213.811
214.336
214.584
210.492
220.137
212.77
211.421
213.984
214.751
211.764
225.903
212.737
212.479
211.12
218.928
225.562
214.743
212.427
215.524
228.967
211.816
239.942
226.035
220.46
214.541
221.915
215.457
212.041
222.326
210.827
215.441
215.62
214.481
214.405
218.111
219.394
216.272
213.623
224.683
210.272
210.517
210.873
224.01
213.191
211.434
211.659
212.966
215.303
213.027
212.979
220.346
212.108
220.491
215.945
214.804
212.195
229.685
215.747
222.063
211.883
210.877
211.19
214.911
213.423
223.151
214.189
210.31
212.873
214.115
210.825
225.439
220.737
210.586
223.172
228.572
214.928
221.289
220.715
215.16
211.713
212.351
211.172
222.925
214.725
223.174
215.274
221.355
231.822
213.936
239.544
214.531
210.467
219.511
222.876
210.323
212.403
218.12
212.343
239.484
214.823
215.594
212.211
215.91
212.687
218.967
210.383
220.968
212.725
211.745
214.652
210.952
216.4
214.949
214.656
213.269
226.974
234.301
215.694
212.102
210.166
218.451
215.002
210.243
213.281
232.155
211.966
215.194
214.214
210.884
214.176
212.042
215.374
214.585
215.098
210.594
213.185
217.213
210.71
213.949
211.862
233.81
221.632
214.14
216.693
223.44
213.143
219.622
215.094
216.017
214.842
219.316
212.053
222.744
220.477
220.733
218.196
218.376
211.888
219.5
223.051
219.812
214.962
214.867
213.718
213.639
213.918
214.054
216.337
224.823
211.126
213.02
212.194
232.838
213.476
214.898
211.625
218.908
212.194
229.07
211.12
210.237
213.899
213.746
212.011
221.889
215.194
215.507
217.196
214.431
214.546
216.794
232.553
213.213
214.947
226.681
214.284
211.447
214.677
214.596
211.22
213.812
214.869
223.426
214.377
214.792
215.574
215.013
213.832
228.95
226.886
212.183
215.043
212.423
216.503
226.715
214.586
211.25
211.125
228.369
212.738
213.694
218.993
222.158
212.245
228.116
210.343
211.86
210.745
222.647
212.416
219.199
213.626
210.367
217.167
213.852
215.07
217.101
215.546
214.368
214.616
214.679
211.679
223.628
215.596
211.313
210.745
215.241
211.029
211.046
213.018
214.798
228.653
210.94
216.756
212.441
211.406
228.788
215.036
211.322
212.017
214.897
210.641
216.423
214.847
213.852
211.636
212.557
211.09
213.173
221.305
218.272
214.57
211.969
218.756
220.333
214.044
225.182
217.781
215.19
214.735
213.659
213.767
213.003
219.978
212.047
213.259
213.102
219.98
217.552
230.19
212.957
214.847
222.482
214.284
213.423
210.282
212.78
213.392
212.344
218.74
211.55
213.168
214.537
211.699
223.649
221.532
231.5
219.03
210.457
212.003
210.309
215.151
212.48
212.293
215.927
221.241
213.502
223.732
212.369
212.147
212.449
210.203
210.776
211.763
210.706
215.368
211.075
213.904
215.1
212.56
214.735
211.246
213.996
215.069
214.952
211.275
215.454
211.438
212.585
210.758
216.369
219.117
215.196
211.962
220.922
211.984
214.924
214.984
222.303
210.282
212.425
212.626
214.606
211.544
211.628
219.512
214.167
215.035
213.872
212.309
210.958
213.725
212.9
212.692
214.661
213.901
229.913
217.373
211.142
216.451
211.141
226.951
213.227
215.375
213.646
221.216
226.485
214.025
210.78
213.364
212.578
215.009
211.95
220.781
226.133
214.839
211.167
231.036
229.439
213.655
211.336
215.679
220.33
212.296
218.2
212.27
224.826
216.276
223.608
214.782
213.318
213.337
229.151
214.469
211.444
211.697
210.294
214.509
214.599
222.354
210.871
212.309
210.328
212.423
211.649
218.179
215.098
211.278
214.664
212.344
211.542
215.873
214.31
210.525
214.19
213.06
214.085
214.618
212.926
218.158
211.5
215.055
211.899
223.789
223.925
214.493
215.126
221.887
210.95
222.291
210.444
224.812
216.411
213.505
217.344
220.539
216.914
212.945
220.627
214.769
213.763
221.396
211.475
214.819
210.372
221.222
214.064
221.126
216.213
213.905
229.303
215.63
212.365
212.597
214.482
210.98
212.162
214.411
214.878
213.742
212.619
212.611
215.202
220.582
214.285
219.844
210.592
233.617
211.703
215.109
210.559
211.931
222.937
226.321
212.507
213.375
211.842
222.656
220.888
210.552
214.974
212.169
210.83
219.849
226.046
215.048
214.857
215.088
215.759
210.393
225.496
212.311
217.679
212.656
218.344
212.439
215.818
210.334
221.251
212.262
219.063
212.945
212.421
210.58
213.039
219.778
214.445
224.296
222.273
211.347
211.407
211.223
227.605
217.621
210.517
214.462
213.467
214.067
214.274
213.102
216.829
222.384
214.073
213.704
212.308
211.395
218.414
222.065
211.397
211.036
210.424
212.823
211.226
214.752
220.534
211.589
211.323
221.972
213.853
210.813
215.518
214.587
214.624
217.392
215.065
228.968
214.358
210.705
214.86
213.391
212.707
214.973
218.7
212.949
218.428
212.494
233.095
215.018
214.559
219.65
226.625
215.095
225.679
213.745
214.312
225.89
214.255
214.752
216.889
210.799
214.72
213.102
211.607
213.245
211.989
212.192
213.132
215.263
213.615
218.933
215.312
224.958
214.784
219.737
212.083
212.524
216.528
214.927
219.873
216.292
210.612
210.461
221.45
220.447
223.646
215.086
215.942
228.236
214.114
212.763
213.662
214.599
214.093
211.492
212.912
211.018
212.525
213.132
214.678
214.683
214.884
222.641
212.942
212.251
216.182
212.784
220.144
212.784
213.557
212.349
210.898
217.317
212.424
213.824
214.348
230.281
214.541
214.3
212.107
210.686
214.624
220.271
214.258
215.158
210.881
221.444
217.315
213.81
212.608
211.765
214.105
216.327
228.513
213.581
215.228
213.855
219.094
211.215
212.899
210.854
222.203
218.859
220.002
212.761
211.854
212.749
210.498
212.206
210.935
220.719
217.844
215.485
224.46
216.32
214.588
217.693
213.883
210.349
219.094
216.858
211.565
227.975
226.947
222.74
215.233
214.717
210.288
210.89
213.858
214.196
210.421
214.18
213.403
214.735
211.463
212.706
213.729
220.778
212.775
216.547
219.341
210.604
223.658
212.806
214.243
210.594
219.287
214.81
222.858
215.48
215.713
214.914
226.502
210.247
213.516
212.164
211.657
211.497
212.04
218.126
210.359
214.275
225.532
225.153
214.806
212.148
210.778
214.705
225.436
219.686
218.285
210.611
216.934
210.377
214.423
214.346
215.132
210.954
215.147
212.128
213.414
214.012
210.414
213.501
217.34
215.117
214.999
214.916
211.78
224.534
212.71
212.224
220.922
214.774
212.528
217.658
213.18
223.032
230.986
210.899
217.395
214.593
226.486
212.619
214.604
212.099
210.606
223.403
210.515
217.74
211.655
215.249
229.715
218.573
225.961
214.026
215.031
213.58
214.85
219.545
214.858
212.776
223.366
216.044
215.286
212.24
226.972
223.486
211.945
224.592
226.91
211.267
218.402
213.495
214.486
220.04
214.356
219.294
210.184
214.178
211.582
210.292
214.331
214.384
217.91
215.666
213.2
231.515
213.441
214.996
212.859
220.713
220.903
212.908
219.084
215.276
214.624
215.543
218.645
211.105
211.004
219.572
210.686
210.342
210.492
215.032
218.471
214.728
210.753
216.919
214.863
214.401
213.991
211.827
210.848
211.627
218.576
211.889
222.161
213.334
215.642
219.094
217.993
214.694
214.967
210.214
220.517
213.566
211.348
221.283
216.357
213.552
212.372
211.618
211.318
212.424
215.838
215.818
214.1
213.983
211.155
211.049
215.014
213.85
211.008
210.513
216.124
214.479
220.271
210.881
212.517
229.011
210.76
212.381
211.031
218.331
213.146
212.695
211.895
214.524
212.039
210.342
225.827
214.563
215.089
227.174
221.017
214.014
224.528
215.072
215.256
212.999
210.636
217.319
213.427
214.751
213.211
212.511
219.499
214.786
213.577
216.499
220.227
219.454
211.233
221.793
212.525
214.253
219.764
211.259
215.837
210.795
215.841
211.164
213.242
213.714
214.179
210.322
215.067
214.745
212.64
212.628
211.05
211.402
219.892
227.29
229.641
211.238
211.304
229.372
224.659
213.55
226.944
211.079
222.769
223.274
221.637
221.032
212.209
212.137
215.029
214.683
215.567
212.661
229.831
213.239
217.454
214.639
212.039
218.95
215.534
212.555
217.194
214.689
219.768
211.862
211.8
211.544
210.603
211.664
210.757
212.741
214.775
221.289
214.509
218.865
214.648
214.802
213.671
211.761
224.15
212.187
224.898
229.835
223.534
222.713
222.533
210.46
214.943
214.339
213.938
217.406
211.584
213.181
211.738
212.435
212.528
224.989
222.844
215.112
212.019
214.436
214.925
225.834
213.103
211.134
218.397
211.653
210.166
218.991
210.872
223.598
217.467
221.037
213.779
223.334
219.635
212.909
211.434
215.404
210.459
223.861
211.206
212.948
213.401
210.931
215.877
216.261
215.145
210.366
214.685
210.599
227.668
227.337
227.67
215.092
212.961
215.084
210.785
217.12
215.72
210.55
230.545
213.9
211.84
223.134
212.068
210.346
215.781
213.757
229.384
214.093
212.13
211.688
214.814
211.74
210.929
216.574
210.298
216.129
214.46
213.092
214.785
211.981
219.346
217.449
216.132
212.389
210.97
224.702
214.882
213.577
213.367
210.38
223.29
214.74
218.498
214.874
211.532
217.498
216.579
211.193
212.646
213.451
215.264
234.702
214.836
214.427
220.71
214.981
210.684
213.02
221.595
212.717
213.722
227.561
222.398
213.855
212.31
226.837
211.234
215.973
217.967
211.222
210.966
214.793
228.296
212.949
214.078
214.278
218.027
214.123
215.478
210.909
212.106
210.46
211.886
215.135
212.665
212.304
219.887
212.076
212.435
221.768
211.552
212.033
215.252
212.027
210.182
212.254
211.945
215.557
214.593
216.423
215.081
210.389
211.425
211.606
220.909
210.816
211.864
219.881
212.737
211.945
222.339
210.141
214.223
217.358
213.238
223.736
214.295
211.553
214.285
238.998
210.631
226.457
210.911
215.376
223.204
211.629
217.186
210.548
231.236
217.2
213.405
216.517
214.559
213.851
222.552
221.363
216.643
221.58
215.022
216.05
214.776
210.263
215.168
211.621
224.058
211.336
213.582
221.848
217.425
211.385
221.544
214.939
216.613
211.134
212.649
210.454
219.539
223.161
223.487
212.646
212.693
219.122
213.661
211.622
215.19
213.347
210.529
214.509
215.671
214.9
213.014
222.719
213.453
214.239
214.061
210.255
216.317
211.158
215.012
212.322
216.638
220.566
214.475
214.204
213.049
215.312
214.724
223.822
220.681
216.999
216.82
210.75
211.156
211.824
214.179
218.243
211.238
214.507
214.585
214.894
210.617
226.384
213.916
212.799
212.88
220.007
218.882
214.857
213.622
219.458
210.43
215.048
212.445
215.002
211.605
212.646
217.394
210.944
215.293
213.05
223.602
215.733
226.533
215.502
215.376
218.773
212.753
212.372
212.712
214.507
217.279
217.328
212.626
210.778
222.012
212.955
212.495
215.042
211.237
213.274
211.161
215.471
226.154
213.368
211.83
217.727
219.457
214.307
211.385
213.64
211.047
213.691
213.693
219.84
215.184
211.34
219.802
214.226
218.037
222.564
214.781
215.049
211.606
218.352
211.89
222.123
228.636
212.866
210.899
216.078
210.669
237.361
211.534
218.726
211.913
212.686
211.352
211.843
215.932
211.685
229.388
218.03
226.886
214.626
211.901
217.644
225.913
214.65
211.99
216.029
228.976
213.295
213.08
220.378
211.15
213.796
210.691
210.759
213.675
215.666
214.704
215.331
211.563
222.17
211.923
222.115
212.096
212.585
211.417
214.34
225.314
212.779
212.051
217.253
213.38
211.476
216.621
217.963
213.065
215.279
214.555
212.557
213.508
215.654
211.73
210.625
220.909
221.358
213.554
214.233
215.15
220.13
214.758
211.134
220.294
221.006
212.099
220.03
215.268
210.676
228.752
221.49
213.214
214.948
214.795
224.442
217.871
215.014
223.027
215.063
214.274
230.311
214.92
210.588
213.177
225.345
211.635
220.199
213.823
211.227
215.174
221.255
211.362
217.088
217.003
213.52
214.717
215.392
211.172
218.473
220.198
215.227
222.721
214.607
210.416
211.94
217.78
212.185
212.402
210.642
214.64
219.435
210.39
212.753
222.457
215.002
215.206
210.891
214.627
211.239
210.977
212.185
213.228
214.789
213.799
211.151
211.829
211.078
219.981
220.461
215.204
214.882
214.795
211.448
215.285
214.897
211.168
213.516
215.033
211.535
211.905
212.405
210.586
214.502
210.533
214.748
212.769
211.273
220.675
212.162
214.963
214.081
214.203
211.724
220.42
219.277
216.171
210.833
219.723
212.359
220.249
214.629
212.571
212.379
211.643
215.057
214.366
216.895
214.644
211.477
210.512
211.728
217.256
214.755
212.579
214.496
221.307
212.272
210.581
215.112
222.2
210.879
214.037
212.526
219.303
212.823
211.249
211.981
211.656
213.806
217.403
225.521
214.844
210.103
210.015
212.84
210.585
210.673
226.463
223.353
220.657
220.225
210.229
225.039
213.929
210.544
222.675
225.832
212.303
214.724
216.207
210.67
212.906