# vtk DataFile Version 3.0
vtk output
ASCII
DATASET POLYDATA
POINTS 10000 float
-23.8568 -31.4932 7.4501
-21.9767 -33.4125 11.2432
-22.2948 -31.2881 9.77499
-22.8759 -36.3343 14.1246
-21.6476 -33.3733 11.095
-21.9161 -32.7722 13.1768
-22.7539 -31.1504 8.54756
-19.8515 -30.7349 10.5415
-20.5638 -30.0252 10.6084
-22.7775 -30.5972 9.04522
-22.4959 -32.3863 8.32532
-22.5392 -33.9148 9.47595
-22.5478 -35.4091 13.6097
-21.5555 -37.7481 11.6039
-21.2734 -36.1177 12.9326
-22.1194 -32.173 10.2875
-19.7695 -41.5273 9.03779
-21.5274 -33.638 12.8274
-20.7731 -30.9686 10.6501
-19.4511 -30.3033 11.5639
-21.4861 -44.0533 7.99984
-22.2627 -34.4652 13.6522
-21.4004 -33.4621 11.657
-23.0619 -33.4249 7.90258
-22.7671 -31.8788 9.42251
-23.1445 -31.7824 7.15306
-20.6874 -39.6344 8.41579
-23.1576 -38.0111 14.453
-23.0177 -31.9089 8.76814
-20.4991 -32.5425 11.7446
-22.2468 -37.5979 7.82934
-19.0459 -27.9958 10.2778
-23.3411 -30.6929 8.11848
-22.7703 -34.0846 9.03773
-21.3487 -31.1252 9.95772
-21.406 -33.2261 11.918
-22.2299 -30.8668 9.0643
-21.7573 -34.9196 11.0842
-20.9543 -31.9017 10.3357
-21.2301 -33.4034 12.2591
-20.4291 -41.4097 8.3265
-21.5793 -36.7706 8.41969
-21.1526 -32.3125 11.2802
-22.234 -34.0272 10.5156
-21.3346 -31.0325 10.6877
-21.7669 -30.8208 9.99615
-22.7219 -31.7565 9.5401
-22.4703 -33.5053 10.3546
-20.2012 -30.8981 10.6875
-20.6434 -40.1693 7.98712
-20.2918 -31.8997 11.6764
-21.0305 -38.6506 10.1131
-22.7893 -34.5641 9.45013
-21.5845 -37.0236 8.46308
-21.4723 -34.9018 12.3382
-20.7104 -40.0289 9.41027
-21.4931 -37.1316 12.8985
-24.3256 -29.8861 6.9267
-21.3756 -36.0889 9.80647
-20.9106 -30.7274 10.7331
-22.8231 -32.735 9.63512
-21.9802 -35.5983 9.97767
-23.9826 -28.8367 7.15238
-21.9247 -30.4162 9.87957
-23.3424 -32.4695 8.94188
-23.5577 -30.5126 7.9327
-23.4551 -37.0098 15.0052
-22.3251 -30.9514 9.65657
-27.26 -38.467 17.5949
-22.93 -35.7533 13.9209
-21.5148 -37.6329 12.8394
-22.8137 -33.3035 8.04209
-21.3251 -34.4887 11.7951
-21.663 -35.9938 9.14364
-22.7494 -35.6956 13.5629
-20.2588 -44.4988 7.98806
-20.8413 -31.0367 10.7248
-24.418 -32.1631 6.78688
-21.2293 -31.2961 11.1009
-21.8459 -39.9268 7.82023
-19.3184 -42.8998 8.48877
-21.1312 -39.5678 7.71925
-21.8384 -36.4248 9.85185
-21.459 -35.4815 12.0454
-21.2881 -30.7219 10.2533
-21.1019 -33.4826 12.7668
-22.621 -32.3245 9.47585
-22.3928 -33.5623 9.96893
-21.1289 -38.8505 8.70992
-21.9101 -37.0895 13.3099
-23 -35.2832 7.62072
-22.9378 -31.3029 8.71671
-21.2275 -31.0146 11.0122
-31.6795 -37.7613 19.2565
-22.5815 -34.5793 8.94226
-22.9869 -31.188 9.1433
-22.2429 -37.2658 7.61127
-20.2776 -44.2192 8.64062
-22.0475 -31.0075 9.79104
-24.1924 -32.4437 7.10309
-22.1515 -33.898 8.86929
-22.0054 -34.1143 8.92392
-22.9395 -34.6875 8.13533
-21.1086 -30.8405 10.3534
-21.3302 -37.9004 9.02723
-21.5067 -37.6047 8.97394
-21.1736 -33.7836 12.3314
-22.1023 -32.0176 9.95106
-21.608 -34.2127 11.8246
-19.5321 -29.4283 11.0907
-22.7082 -32.4845 8.99495
-20.5585 -32.2423 11.4273
-19.6993 -33.1109 11.729
-21.809 -35.8907 11.5443
-22.6913 -32.7782 9.63808
-21.8645 -33.1845 10.509
-20.4226 -40.0479 8.31789
-21.2932 -28.0997 9.22971
-23.6556 -31.0134 7.51597
-22.9869 -30.8709 9.05989
-21.1506 -34.077 13.0146
-23.6289 -39.1544 15.0742
-22.756 -32.7071 9.69314
-20.6755 -33.163 11.536
-22.7829 -32.5616 9.00935
-20.4985 -42.3001 8.59527
-21.6141 -32.5493 10.4424
-21.8573 -32.9204 12.8257
-23.3502 -32.9719 8.79737
-22.836 -32.4586 9.39731
-21.1862 -30.2715 9.87147
-21.2786 -44.2511 8.1682
-22.1273 -35.2527 8.87486
-21.4305 -32.4498 11.0379
-21.9992 -31.4578 10.3916
-19.2863 -45.4152 8.73963
-22.4642 -35.1499 9.98232
-20.8185 -31.4231 10.7115
-21.2456 -32.5623 11.1181
-22.9685 -30.2552 8.19226
-21.3733 -30.2187 10.3328
-22.2565 -39.3945 7.99333
-20.5901 -32.4873 12.1882
-24.1573 -39.3329 16.3032
-22.5306 -33.9536 9.79228
-22.553 -35.4128 13.5817
-23.706 -29.7699 7.91754
-21.75 -36.4179 8.45227
-24.2752 -31.2169 6.94123
-23.3359 -30.9815 7.56761
-20.0136 -31.8694 11.8053
-21.1203 -43.4562 7.96587
-22.1823 -42.1774 7.07822
-23.3111 -37.2905 14.5183
-20.0811 -32.0037 11.1861
-21.4986 -29.0925 9.6009
-24.425 -31.7068 6.77131
-21.334 -28.8947 9.4925
-22.1931 -33.5281 10.3479
-21.9939 -32.1331 10.5099
-23.492 -32.2418 7.97722
-21.288 -32.6121 11.249
-19.4723 -43.29 8.1183
-22.1022 -34.7126 11.416
-21.9887 -36.5186 13.5231
-23.011 -37.7112 14.0953
-23.796 -30.534 7.98013
-23.5808 -31.2965 7.64923
-22.5215 -33.9454 10.4201
-22.7262 -34.5693 8.39979
-23.1846 -31.3328 9.24924
-18.7668 -42.7796 9.43602
-23.2987 -38.8491 14.9109
-24.3875 -39.6537 15.9079
-21.9876 -35.5673 10.3005
-22.0014 -34.3058 11.2023
-22.4278 -34.2654 8.49124
-22.7533 -34.4259 9.44281
-22.1432 -28.997 8.77259
-23.3099 -32.7326 8.53298
-22.2924 -30.8248 9.65598
-23.5424 -30.96 8.30619
-22.8583 -29.5281 8.67379
-23.6753 -30.7353 7.97975
-22.5987 -31.4049 9.67901
-21.3219 -32.2712 11.1243
-22.7932 -30.0596 8.88049
-21.3896 -31.71 10.4241
-20.6868 -33.2121 11.5674
-22.2002 -30.4359 9.76401
-21.9772 -30.9882 9.39459
-20.4978 -29.3602 10.0606
-22.3018 -36.2753 10.3658
-21.1087 -33.0361 10.9043
-23.7134 -39.8186 15.6028
-22.8799 -31.6305 9.3471
-24.6879 -47.4697 7.34557
-22.022 -35.8823 13.1478
-22.0733 -34.2613 11.6271
-22.7889 -33.138 9.71552
-22.4082 -31.17 8.48792
-21.3202 -35.0295 11.9762
-21.2233 -38.8048 8.63197
-20.803 -43.9284 7.732
-20.4011 -31.5087 11.4884
-20.194 -31.3227 11.2847
-23.008 -29.0913 7.77035
-23.1269 -30.287 8.56677
-23.0914 -29.6782 8.47169
-24.3998 -38.9636 15.6163
-25.0812 -29.6964 6.36711
-21.2943 -42.7113 7.85666
-23.9548 -30.883 7.89674
-22.995 -33.5503 8.7757
-21.5688 -37.2015 8.90237
-20.7247 -39.7463 8.97167
-22.1819 -29.4506 8.84022
-22.7926 -31.9727 9.41665
-21.7561 -35.1092 11.2074
-20.9156 -40.6056 8.52236
-21.7505 -34.625 11.0842
-21.5827 -31.6253 10.0068
-21.1406 -38.2605 9.09013
-22.4119 -32.4371 9.71435
-22.6034 -34.3417 10.1147
-23.2529 -28.8818 7.87548
-22.3884 -36.5697 7.59192
-21.1449 -37.8901 9.6672
-22.6361 -34.9008 9.34155
-22.5574 -34.3437 10.2085
-19.8923 -32.1823 11.9473
-22.2859 -30.7681 9.80902
-22.9758 -30.1239 9.00141
-20.3973 -39.5009 9.28033
-22.81 -33.663 8.95611
-23.4429 -32.2686 7.91305
-22.2626 -33.1955 9.64705
-21.5073 -37.1257 11.693
-21.7349 -36.3633 9.3296
-20.7593 -39.1049 9.56091
-22.1375 -32.6651 10.5748
-21.8801 -33.8087 10.5152
-23.9067 -31.1687 8.38739
-19.6611 -30.5726 11.204
-20.9832 -29.7677 9.87664
-20.7377 -43.7301 7.6754
-23.2197 -33.2092 8.35238
-21.7999 -31.7682 9.94953
-26.0293 -29.9399 6.22294
-22.5466 -30.8492 9.13321
-22.7394 -34.4858 10.0939
-22.8956 -33.0887 7.48072
-22.5424 -31.9569 9.94756
-21.5596 -31.1545 11.0534
-19.9288 -42.6674 8.13075
-22.9991 -35.8629 7.57685
-22.973 -33.5683 8.91871
-21.7375 -35.7246 12.4328
-23.9842 -38.009 15.4986
-20.582 -38.2543 9.10688
-18.8212 -42.9074 9.58802
-23.0991 -31.0847 9.23415
-22.2331 -46.7503 8.20266
-21.8653 -34.8848 13.005
-23.0062 -32.1936 10.1756
-22.3968 -31.4684 9.45341
-22.9187 -35.244 7.94613
-21.4936 -32.9793 11.8852
-22.1006 -40.384 7.90606
-23.71 -30.6525 7.94131
-25.3069 -29.6023 6.8018
-20.5151 -31.2996 12.7679
-23.2673 -30.1126 8.03775
-20.4941 -32.6709 11.9058
-21.2765 -32.2042 11.9111
-22.8668 -32.0688 8.84174
-20.4678 -40.6267 9.45836
-21.0695 -32.0327 11.3036
-23.2167 -36.8696 7.43946
-21.3342 -37.8613 9.43809
-22.917 -33.251 9.37101
-23.2528 -32.6994 7.85521
-18.6447 -43.4043 8.43763
-28.8701 -38.0435 18.3122
-22.5262 -31.146 9.52567
-21.314 -30.7241 10.0883
-22.3543 -34.771 13.143
-21.9689 -32.813 10.7368
-23.7006 -31.9611 7.90125
-21.3376 -30.4512 10.2321
-22.9005 -31.3563 9.29665
-23.6793 -31.7561 8.17808
-21.7119 -32.3299 10.4284
-21.7115 -34.3864 12.9848
-22.8526 -29.5359 8.80787
-19.9569 -43.4132 8.5678
-20.9625 -37.3646 9.74172
-22.6977 -33.7607 7.80517
-22.6958 -30.0825 8.68576
-22.2844 -31.0277 10.0449
-22.0606 -45.9659 7.80131
-20.8222 -32.6406 12.4857
-20.6587 -31.8157 10.6959
-23.1609 -36.3378 14.1207
-21.0008 -32.6787 11.6188
-21.9271 -34.6991 13.2509
-18.1444 -29.9461 9.56034
-22.5946 -32.7143 9.03506
-20.1943 -31.5136 11.411
-21.1869 -44.7379 8.66162
-22.2155 -37.8994 7.68172
-21.9488 -36.4417 13.4703
-21.3489 -38.6628 13.0118
-21.8823 -30.962 10.6704
-23.2302 -32.9115 9.90648
-22.1291 -30.0818 9.68932
-19.525 -31.3271 11.3873
-21.0072 -33.2039 11.9294
-23.0843 -32.065 7.81771
-23.1396 -31.2132 9.25598
-22.9234 -31.4231 8.15734
-21.3023 -32.7542 11.3237
-21.2407 -33.4031 10.9247
-22.2638 -36.6523 13.3138
-23.2095 -31.4678 8.45257
-21.8228 -36.5469 10.1761
-20.2348 -41.6021 8.82948
-21.9989 -29.7406 9.40722
-21.0634 -38.2672 8.29803
-23.5731 -42.1582 7.10408
-25.5429 -39.0978 17.0397
-22.6053 -37.5692 13.8212
-21.7745 -33.8221 10.8104
-23.5488 -33.2105 7.55098
-21.839 -36.4886 9.9772
-18.9447 -42.2811 9.4324
-21.5795 -34.3544 12.6922
-23.0674 -32.1675 9.14475
-21.0995 -44.0741 8.81255
-20.7976 -30.9198 10.9334
-22.1502 -35.1071 9.56497
-19.8764 -40.3588 9.16429
-20.022 -31.6107 12.0406
-22.6897 -30.1451 9.22863
-21.4907 -34.1545 12.5658
-19.5217 -41.2307 9.68127
-24.1582 -39.2934 15.7429
-22.0696 -34.5637 13.407
-19.6032 -31.4574 12.0245
-22.2581 -34.2343 9.452
-23.7373 -30.297 8.28708
-22.3859 -32.157 9.48366
-20.3723 -41.467 8.17647
-21.3144 -30.8952 10.2381
-20.3757 -32.7844 11.2583
-22.7543 -34.6348 9.03007
-23.3514 -30.7642 8.30053
-22.3818 -33.5437 8.90153
-22.8449 -34.7078 9.27234
-22.0461 -36.12 8.93264
-22.9564 -30.7139 8.91489
-23.0816 -35.9688 26.2305
-22.7189 -30.4914 9.01467
-23.2135 -37.7943 15.1733
-21.9463 -45.8216 8.03085
-24.1904 -29.8703 7.43226
-23.2099 -38.6728 14.8321
-22.5661 -34.2492 10.3647
-22.2353 -34.9583 8.70839
-22.0221 -36.7268 13.464
-20.4544 -28.5484 9.39234
-20.9512 -33.2318 12.1696
-23.8786 -30.5228 7.67499
-21.3287 -33.1538 10.8147
-19.9718 -41.9237 9.28924
-25.8402 -38.9658 17.3102
-22.8637 -32.0193 8.94139
-21.5213 -37.628 11.8462
-23.0403 -37.9543 14.5958
-19.5605 -33.0931 12.397
-20.3707 -31.0435 10.476
-23.4325 -31.5537 7.91903
-23.0065 -39.1697 14.4274
-23.0115 -30.3442 7.94864
-28.7449 -37.9195 18.1574
-22.5106 -34.7974 13.8789
[...]
POINT_DATA 10000
SCALARS t float 1
LOOKUP_TABLE default
231.759
220.363
220.699
218.577
220.563
220.174
224.763
221.565
221.384
222.564
225.753
220.201
219.365
218.451
220.462
220.249
218.695
220.79
221.43
221.197
223.701
219.585
221.15
227.921
221.089
234.017
222.775
217.865
223.445
221.919
227.203
221.251
227.375
221.299
221.032
221.2
222.551
219.658
221.417
221.225
222.911
223.47
221.353
219.475
221.105
220.608
220.886
219.524
221.632
225.6
221.885
216.599
219.727
223.129
220.762
217.476
219.894
236.339
218.751
221.367
220.352
218.405
235.11
220.877
222.343
228.679
217.542
220.971
215.002
218.833
219.659
227.08
220.993
220.074
219.206
224.004
221.412
236.533
221.287
226.71
221.645
227.621
218.086
220.458
221.034
221.124
220.919
219.597
221.203
219.454
229.244
223.878
221.271
214.228
221.515
221.947
228.823
219.887
220.844
234.04
222.437
222.123
225.877
221.187
219.803
220.176
221.229
220.367
220.818
221.037
222.329
221.807
222.312
219.491
220.395
220.215
223.35
223.491
231.45
222.405
220.828
217.077
220.277
221.748
222.203
220.826
220.634
220.608
222.799
220.945
221.302
222.472
221.614
220.956
220.48
219.066
218.417
221.458
221.156
227.052
221.097
225.507
221.599
216.161
219.578
219.375
229.123
223.35
235.733
231.101
221.85
224.415
231.455
217.937
221.926
222.032
236.833
222.347
219.763
220.372
227.802
221.177
223.948
219.826
219.508
218.198
228.37
230.38
219.255
224.212
221.503
217.08
217.344
216.39
218.484
219.932
223.879
219.845
224.553
224.172
221.008
226.083
224.742
228.284
220.718
221.135
223.487
220.972
221.744
220.982
221.661
221.404
217.722
221.107
216.623
221.278
226.136
219.852
220.276
220.04
225.176
220.781
221.654
225.992
221.737
221.718
230.356
224.86
225.591
216.592
240.828
225.547
228.782
222.731
220.714
219.467
223.943
221.07
219.672
221.783
219.868
220.722
219.34
220.512
218.903
229.854
229.123
217.826
219.801
218.946
221.874
220.737
222.97
218.129
221.896
228.232
220.493
219.081
219.278
217.495
220.136
219.937
225.497
221.376
221.453
226.515
225.016
220.611
241.991
222.1
218.721
231.047
220.073
221.072
223.976
229.395
222.062
220.264
216.83
219.436
216.627
221.634
220.881
220.281
219.72
221.26
226.975
221.18
225.852
228.573
237.467
220.82
228.095
221.84
221.397
223.11
217.15
221.448
230.133
218.32
220.615
228.491
221.972
214.364
221.096
220.964
219.869
220.249
228.383
221.04
221.453
226.618
220.566
220.471
224.16
220.775
218.135
228.498
224.341
220.333
223.984
221.359
221.603
218.444
221.582
220.07
221.786
222.103
221.778
219.107
228.184
219.578
219.224
220.752
219.527
221.253
221.671
221.509
229.021
221.54
227.004
221.182
220.867
219.361
225.023
217.752
219.781
221.899
223.866
231.081
215.614
218.637
220.073
230.411
217.78
217.109
220.837
221.638
218.591
221.445
219.448
218.306
221.571
221.983
220.921
216.508
216.525
219.876
221.506
220.213
226.508
221.087
223.955
221.011
221.926
221.025
226.173
222.383
219.994
220.925
223.105
217.192
222.735
217.308
222.442
232.509
217.482
219.026
222.544
219.451
222.708
221.459
230.439
220.805
217.365
215.428
222.668
218.885
217.848
222.021
221.654
228.431
217.668
228.641
214.407
219.191
221.502
219.523
220.835
217.257
220.272
218.758
220.313
217.011
217.163
221.522
218.349
224.238
220.54
219.642
219.487
217.088
222.248
220.72
230.086
216.462
221.202
224.746
220.599
215.438
219.459
221.18
238.709
219.445
221.07
221.532
215.87
220.468
219.13
226.209
225.996
221.694
222.654
217.835
234.753
217.805
220.522
224.555
242.698
221.21
223.14
229.306
221.509
221.372
220.366
225.283
222.024
223.809
220.798
224.532
220.719
222.035
222.612
221.304
217.814
220.608
226.878
220.759
222.678
220.691
220.021
220.435
221.6
224.507
226.475
221.427
220.707
220.865
220.108
221.173
221.578
224.333
221.105
230.672
240.664
229.209
220.766
221.331
219.354
219.327
217.034
219.685
221.816
220.198
221.776
218.228
220.386
221.799
224.903
228.086
221.567
218.145
221.222
219.578
217.721
225.618
221.023
220.519
219.601
221.523
223.533
224.59
222.6
217.806
225.138
220.903
220.049
221.112
219.325
230.234
227.117
221.649
221.753
227.892
220.259
220.053
220.634
221.488
228.078
220.089
221.588
225.288
221.017
224.97
225.327
220.848
217.336
222.623
218.74
221.336
221.376
224.011
233.439
218.859
221.895
222.031
219.937
219.005
225.764
221.344
220.47
219.213
229.157
225.488
220.585
221.737
228.401
216.218
220.58
217.959
224.785
220.935
218.632
217.754
228.204
221.454
221.062
221.11
227.078
220.724
224.789
233.516
224.504
213.976
225.329
218.733
219.621
225.116
221.285
219.928
219.033
221.666
219.915
219.793
220.145
223.992
219.617
229.443
218.144
220.967
224.413
226.04
222.504
223.48
220.194
220.974
216.215
220.285
220.467
219.857
224.5
220.503
220.771
216.838
221.391
224.287
230.858
221.495
222.494
218.138
228.874
219.04
219.567
220.851
227.147
221.308
218.296
241.914
226.091
221.262
223.894
222.368
217.999
221.199
219.604
229.533
221.635
221.473
219.405
219.618
219.92
220.711
220.24
219.515
219.598
221.393
220.376
217.484
220.435
220.828
222.388
221.497
217.946
224.794
219.137
220.404
219.456
220.734
224.492
229.459
221.716
221.28
217.599
221.954
220.266
232.673
220.887
220.903
220.504
221.312
219.165
220.719
217.827
221.762
222.983
221.6
220.058
221.839
221.065
219.027
221.641
221.534
225.649
219.446
234.494
225.581
226.877
238.292
218.964
219.119
218.939
224.532
225.589
222.163
222.272
218.99
228.828
221.299
216.813
220.217
221.51
215.67
226.008
223.299
217.423
220.859
219.94
221.596
220.24
220.529
221.694
217.62
229.826
221.064
220.913
229.691
221.519
219.606
223.991
231.706
220.609
221.707
221.572
225.758
219.254
220.449
221.168
223.229
227.074
224.598
223.484
221.247
222.81
221.925
220.359
227.643
220.685
221.194
221.262
226.237
227.119
220.97
219.883
216.75
223.789
224.897
221.097
221.413
220.653
220.36
226.913
221.02
221.821
221.517
221.336
220.886
224.396
221.38
221.228
225.777
221.418
218.339
220.266
219.11
225.257
220.777
220.183
228.551
221.283
220.907
220.444
228.596
224.384
228.303
225.024
220.8
222.053
221.021
219.881
213.69
222.865
219.102
221.106
216.14
222.131
229.253
223.766
222.147
219.935
220.716
232.012
221.988
222.436
221.47
223.105
224.632
227.119
227.54
221.703
228.708
221.429
220.467
220.671
220.129
224.141
221.515
229.159
227.019
221.363
224.161
227.372
218.171
224.927
218.479
217.093
220.116
221.198
222.368
220.091
221.124
221.675
226.655
222.503
220.56
218.624
220.84
220.935
227.975
236.1
220.979
221.075
233.05
220.175
214.074
219.619
221.947
225.58
217.58
219.149
221.266
218.296
220.262
218.758
221.452
219.561
224.953
225.778
237.559
231.073
225.209
241.135
221.381
226.544
222.051
231.54
221.113
221.289
223.724
221.341
221.369
223.92
221.378
221.778
221.436
241.363
222.056
220.387
218.835
220.052
220.799
226.854
221.153
226.806
218.001
221.977
219.691
219.339
234.821
220.337
219.504
221.193
220.622
223.174
225.829
220.838
219.65
220.219
221.091
222.41
221.876
222.243
221.431
218.285
221.392
220.863
219.913
224.462
222.804
221.943
233.846
221.003
214.864
220.373
221.456
223.901
219.731
220.861
219.985
221.339
222.673
220.091
217.701
234.91
218.177
221.34
228.44
221.421
224.381
221.456
221.021
226.871
223.075
213.545
221.723
225.241
221.452
221.433
221.67
221.575
222.141
216.69
220.322
220.351
217.059
220.917
216.801
221.07
222.09
220.649
219.536
220.303
216.073
220.564
221.489
221.946
226.12
227.37
221.285
217.215
220.004
219.819
221.613
225.792
217.771
221.369
220.045
221.337
220.217
219.279
220.952
222.672
225.301
219.131
233.055
220.886
227.27
219.273
230.195
218.953
224.544
218.789
229.52
221.187
222.573
218.018
223.524
227.434
221.204
218.557
219.101
220.875
220.353
225.216
222.632
226.866
225.114
220.372
225.965
215.511
220.191
217.574
223.376
221.051
224.872
236.929
227.734
220.816
221.024
221.531
219.138
238.6
221.708
228.23
221.453
222.232
240.779
223.466
219.789
221.321
219.965
216.613
220.875
218.004
220.646
215.271
221.142
219.387
217.309
220.844
221.674
220.81
220.791
227.462
222.998
221.43
221.015
221.316
220.646
220.965
222.121
220.221
218.275
220.511
221.398
224.862
219.949
223.638
224.537
218.67
219.703
219.975
221.156
222.583
226.368
221.522
219.626
221.524
220.486
226.85
231.887
217.384
220.532
221.142
219.59
217.807
219.001
220.849
221.715
218.89
216.312
225.246
221.255
221.742
216.202
226.728
237.782
219.138
221.377
218.939
228.786
222.458
232.615
227.345
221.478
223.471
233.109
223.605
220.786
226.154
220.77
219.499
222.721
229.382
224.002
231.326
236.294
226.151
221.539
226.355
220.518
219.741
220.536
232.83
223.034
221.245
220.135
221.557
223.371
219.775
221.055
231.342
221.397
222.327
218.841
218.811
221.47
234.572
220.481
231.812
220.662
220.079
221.399
226.34
216.672
233.44
220.302
217.859
222.612
219.591
221.069
223.207
236.405
221.336
237.934
228.352
220.678
224.03
227.84
220.312
221.438
218.71
220.168
227.482
220.28
227.224
219.823
224.397
232.425
223.968
232.485
221.148
219.929
228.545
225.399
220.796
220.659
226.963
221.606
231.022
220.94
221.828
221.201
224.487
220.67
223.173
219.308
229.089
220.85
219.594
220.788
220.36
222.087
221.409
220.052
221.803
221.876
226.426
228.159
216.988
221.8
224.104
219.923
219.796
221.517
226.642
220.228
219.56
224.276
220.461
221.389
221.456
221.232
220.527
217.995
221.288
215.972
218.039
220.201
221.813
221.357
228.384
220.285
222.36
217.688
235.111
221.602
218.674
218.592
220.746
217.688
221.534
222.128
219.411
218.832
220.472
217.062
231.285
221.033
225.549
221.722
224.084
221.207
221.942
221.579
221.559
224.089
220.872
227.39
225.026
220.491
220.156
221.828
226.095
220.135
217.136
221.189
222.916
220.314
224.225
221.113
221.097
221.338
224.37
221.314
233.683
220.922
225.983
226.389
219.92
219.111
217.8
225.806
222.12
218.358
226.518
222.219
221.202
220.688
221.008
220.89
221.936
220.588
219.697
214.342
220.03
225.965
220.551
219.892
224.369
232.009
222.082
220.912
222.945
224.717
223.634
219.273
221.415
221.599
242.81
215.53
216.268
219.446
224.166
216.151
226.165
219.596
221.953
220.199
221.588
221.898
228.395
220.917
220.581
219.021
221.377
219.755
225.018
226.658
220.865
219.836
219.64
221.262
237.349
224.119
221.301
219.948
220.639
220.641
220.447
220.841
219.587
233.333
219.196
223.547
221.605
219.404
227.487
219.84
220.521
220.207
218.301
221.087
228.077
223.206
214.052
221.028
221.023
218.498
221.591
228.289
217.204
219.661
219.941
219.285
226.99
221.212
220.275
218.691
219.506
221.133
222.83
222.276
219.782
231.955
220.778
221.539
220.779
220.478
226.289
230.048
221.51
219.766
234.804
216.649
221.269
221.153
221.767
221.789
214.373
232.956
215.571
223.907
220.007
221.297
221.589
222.045
229.667
238.561
218.809
221.836
221.705
221.297
221.123
223.034
217.681
225.21
221.716
223.275
221.472
224.155
220.744
221.177
221.971
220.86
220.749
226.718
220.612
222
221.367
217.018
218.379
220.598
221.785
224.595
221.2
219.868
218.34
221.789
220.555
221.273
227.716
229.547
226.811
220.68
228.514
221.047
222.56
220.222
222.183
220.034
220.684
221.522
219.647
220.42
221.889
218.127
220.387
220.482
216.16
222.333
219.558
220.57
216.607
220.609
219.73
217.961
222.506
230.88
221.725
216.714
221.823
222.297
222.112
223.815
217.203
236.898
223.229
226.192
219.673
225.08
219.467
223.343
221.117
227.536
225.109
221.462
221.502
226.039
223.593
222.997
221.325
223.492
219.593
221.701
221.331
221.48
223.861
225.698
231.516
219.651
221.087
221.511
223.899
221.733
219.051
221.323
220.327
220.105
220.134
234.079
220.92
218.876
221.098
221.614
219.78
230.118
221.038
221.329
216.829
215.791
217.823
217.914
223.652
220.247
221.147
221.678
222.7
217.396
224.361
218.664
219.59
220.338
220.793
228.079
238.598
221.064
218.91
226.272
220.06
231.415
220.278
232.727
228.946
221.453
217.615
227.322
224.982
216.266
220.815
219.763
221.701
224.283
219.54
219.785
221.142
221.915
221.424
222.998
225.19
221.177
226.862
219.01
220.487
219.897
217.379
220.554
220.758
220.367
220.519
222.173
221.99
223.862
221.513
219.719
222.025
218.054
220.547
232.579
220.267
221.635
215.916
220.904
231.352
229.332
221.67
221.544
224.578
221.95
227.637
219.93
220.553
218.537
220.707
221.193
224.713
221.396
220.42
219.208
224.229
218.601
236.172
220.04
228.823
219.136
219.073
218.129
225.654
220.893
225.666
214.3
218.777
221.851
221.384
220.724
220.901
233.101
222.42
228.804
223.306
221.623
221.204
221.215
229.236
228.284
218.544
226.341
221.123
217.497
222.74
221.853
228.969
220.391
224.264
219.011
221.352
220.348
230.84
232.857
218.925
221.138
221.071
221.198
220.219
220.137
222.812
221.813
218.417
237.572
223.387
220.917
224.957
218.331
222.184
218.859
217.762
228.101
227.223
220.587
220.762
219.802
221.527
219.779
226.164
221.302
228.671
221.449
229.063
220.852
221.128
227.561
226.432
221.237
223.803
223.808
221.856
236.709
224.011
217.586
221.162
221.317
221.59
216.56
223.861
221.586
218.94
219.967
223.47
230.03
221.332
231.856
223.373
224.342
216.346
226.34
225.121
213.758
221.461
218.559
216.827
225.733
220.121
220.324
228.391
220.197
221.236
221.425
225.223
226.801
223.644
223.86
218.466
219.119
221.576
220.292
220.434
220.505
220.35
221.09
219.656
220.019
219.496
219.65
222.993
222.293
218.854
220.987
220.319
221.218
216.345
219.926
221.554
217.592
221.243
223.673
223.806
223.906
221.758
217.189
221.183
219.503
221.656
231.364
219.964
221.546
221.191
231.296
223.37
221.758
220.955
222.783
226.694
222.699
233.778
219.249
221.137
221.167
230.702
221.563
221.855
220.32
223.325
228.086
220.936
221.48
220.819
220.017
220.444
221.802
220.913
232.436
219.279
225.201
231.958
217.211
219.949
215.501
216.111
220.608
237.703
220.293
222.201
223.831
226.111
231.068
220.738
219.759
222.169
221.281
221.851
224.378
220.34
223.398
215.876
220.255
220.039
219.359
221.184
221.513
223.471
226.23
221.726
220.894
233.489
221.709
217.382
221.571
229.843
221.693
229.476
224.528
224.747
220.544
222.217
220.222
216.411
221.545
220.732
216.549
220.755
219.564
220.273
219.931
225.07
227.226
220.968
219.205
222.054
219.357
224.944
222.397
222.057
220.086
221.179
218.005
222.412
221.686
221.31
220.684
221.884
220.056
225.346
221.517
220.481
216.337
217.995
220.771
217.376
221.782
220.748
233.442
221.217
214.237
225.057
221.638
219.955
224.404
222.405
240.325
227.745
220.723
227.044
221.765
226.159
220.927
218.63
219.455
220.434
223.292
219.388
227.165
219.99
221.6
230.361
220.092
221.08
221.205
218.074
221.553
218.209
221.03
223.993
222.638
223.728
219.069
221.454
221.552
224.83
223.656
220.017
230.982
221.924
221.58
222.495
220.427
221.782
222.599
220.951
230.977
219.973
224.759
221.226
221.922
219.224
224.461
221.185
227.822
222.331
231.445
219.378
219.833
220.15
220.496
225.161
220.276
222.228
215.163
217.593
217.838
218.506
220.824
220.259
223.318
221.213
220.445
219.071
220.91
220.069
217.406
220.25
217.808
220.536
217.203
221.52
222.475
221.197
221.003
218.679
220.71
223.773
221.431
220.722
229.625
217.763
217.979
220.773
219.961
230.1
220.092
222.217
227.243
217.212
226.566
224.551
222.276
220.884
218.976
226.772
223.933
216.675
220.922
219.17
219.667
221.671
216.476
219.895
220.326
223.691
224.313
221.087
221.847
221.744
228.998
220.549
219.537
220.323
220.311
221.654
220.846
219.17
221.53
218.88
220.432
224.598
216.829
220.399
220.823
225.015
220.448
234.614
219.103
218.715
221.477
221.801
222.372
224.758
226.736
218.123
218.407
218.273
219.651
221.264
218.545
223.387
224.426
220.729
223.321
222.356
223.167
221.116
221.177
228.837
220.151
227.891
220.381
220.733
222.643
222.729
221.05
221.383
216.674
220.202
223.478
222.228
220.598
235.335
228.232
227.001
220.431
221.088
224.469
224.614
219.844
224.401
218.768
223.411
235.386
221.467
220.62
214.016
221.134
223.733
218.024
227.875
223.922
226.875
221.379
219.292
217.553
221.403
223.584
226.986
221.893
225.73
217.762
230.69
220.905
222.074
220.619
220.836
219.846
220.461
221.616
220.329
221.596
220.382
218.788
218.901
218.673
219.671
221.459
230.729
220.833
223.327
238.149
224.134
222.89
239.908
220.455
224.759
221.677
219.689
218.579
221.909
221.28
221.18
219.514
225.234
223.957
228.19
221.782
221.395
219.819
218.476
239.428
221.718
220.962
227.541
220.078
219.554
220.174
218.347
228.37
225.346
221.476
221.195
222.895
220.007
221.607
220.879
222.348
220.524
223.394
220.768
220.852
213.597
220.566
224.444
216.26
219.901
219.294
226.797
220.502
233.588
223.64
222.961
221.034
223.041
221.382
221.259
228.722
216.443
218.982
226.776
220.57
222.26
222.528
220.304
219.935
215.795
221.217
226.549
217.582
226.816
220.363
219.029
226.213
220.933
223.472
218.545
225.302
220.882
217.643
224.73
218.54
232.846
220.076
223.464
221.281
219.819
236.577
223.644
213.789
222.669
221.625
222.441
219.002
220.367
220.327
226.101
225.596
226.114
220.154
221.644
221.479
221.436
228.632
221.158
217.5
221.228
217.806
217.574
215.693
239.923
221.747
220.656
221.796
225.717
223.169
224.129
224.732
221.11
225.861
217.042
221.542
220.154
221.639
227.273
220.091
219.985
223.969
218.952
218.099
220.628
220.091
221.665
220.232
221.451
218.285
220.793
220.651
236.22
222.154
221.581
229.893
221.799
223.59
219.818
221.119
220.33
221.285
221.018
224.882
221.97
224.147
221.998
220.549
221.271
216.518
220.445
220.071
220.577
217.024
221.481
220.874
225.208
220.172
221.86
223.207
221.235
223.361
224.707
220.929
221.95
230.311
220.241
222.734
219.621
222.235
231.284
223.823
227.624
219.534
224.888
224.208
221.388
223.358
221.959
219.001
223.329
237.204
222.848
222.441
221.316
224.082
221.066
219.477
221.812
218.027
231.213
220.002
219.47
230.14
229.615
220.612
226.643
219.261
230.589
220.207
221.06
219.912
228.176
224.868
222.139
215.524
219.065
221.932
221.738
221.614
221.133
222.39
220.081
219.254
225.114
221.708
218.573
238.216
218.485
220.819
220.982
219.348
226.566
220.975
221
222.74
227.062
222.377
220.683
222.288
220.363
220.767
219.458
229.339
220.232
217.647
220.399
222.971
220.143
221.258
223.368
229.896
220.905
227.366
219.188
220.919
221.231
225.26
221.929
221.765
221.383
236.985
224.008
220.195
222.112
228.905
220.561
219.283
221.15
221.21
220.618
219.979
229.827
221.398
221.041
220.659
221.475
220.121
225.375
216.012
221.899
226.745
215.483
221.55
221.96
218.427
223.66
221.114
215.185
221.92
233.294
222.432
219.027
219.72
220.966
217.438
220.923
222.838
223.027
221.761
220.934
224.653
222.819
221.416
220.471
221.524
220.3
221.856
221.414
225.316
221.135
220.791
233.525
216.263
222.581
229.824
219.258
225.719
220.078
224.897
220.757
229.793
227.112
221.817
219.666
223.653
220.369
231.424
221.4
220.956
220.268
221.041
218.721
219.619
223.675
219.943
226.228
227.19
224.411
218.903
221.205
218.279
231.429
220.261
220.35
217.429
229.135
221.281
220.456
224.294
221.102
221.381
220.192
218.492
224.738
226.555
218.083
223.824
220.433
222.071
224.046
230.184
214.137
220.748
220.052
221.929
224.982
222.548
221.436
224.746
221.108
221.323
217.156
218.393
217.846
220.983
218.414
221.469
220.837
218.693
221.248
219.941
223.097
219.842
221.012
222.843
219.865
224.947
219.727
221.881
233.702
221.083
220.394
227.76
224.96
221.328
228.922
234.173
220.59
221.654
218.888
221.792
217.558
223.836
233.768
219.59
227.246
226.905
218.829
220.174
216.516
227.651
221.61
220.245
221.895
221.029
219.093
220.843
220.28
226.427
225.351
222.533
219.274
223.816
219.061
222.897
220.115
220.707
222.483
220.541
220.735
220.926
225.136
219.932
224.695
221.218
221.741
226.77
220.509
216.469
225.756
220.52
218.425
220.239
218.09
220.265
221.358
220.983
221.43
225.138
216.386
217.266
220.174
219.208
221.402
222.284
220.976
219.432
217.274
220.148
222.704
219.651
220.819
221.277
220.427
221.36
219.931
221.752
220.863
217.91
219.466
225.337
213.627
216.799
222.848
214.29
220.364
221.215
220.921
221.4
220.633
222.726
227.555
220.983
229.164
220.67
219.565
221.467
219.052
217.54
221.916
221.2
219.988
217.637
222.709
221.41
217.524
222.405
219.513
220.175
225.62
220.08
221.319
220.581
219.755
223.592
222.234
215.816
219.533
218.732
226.439
223.197
221.233
220.576
220.77
221.572
215.004
234.09
223.696
220.216
220.614
215.815
220.321
220.998
223.873
223.569
220.462
222.101
220.812
233.098
221.585
221.16
224.224
221.877
225.061
221.74
225.793
221.46
221.121
221.495
223.026
221.369