# vtk DataFile Version 3.0
vtk output
ASCII
DATASET POLYDATA
POINTS 10000 float
-47.3648 -44.3226 8.83068
-43.5265 -39.6129 12.6624
-43.0707 -42.0701 11.0832
-46.2559 -39.29 14.9292
-42.8763 -40.6416 11.8415
-45.6771 -39.287 14.2949
-44.8719 -43.8817 10.0894
-43.3496 -40.9511 11.9189
-43.2704 -40.4284 11.6431
-44.7181 -43.7657 10.4424
-46.2831 -44.1895 9.71082
-44.6422 -43.7612 10.4786
-45.8583 -39.5502 14.367
-43.0763 -39.1847 12.4962
-44.1427 -39.204 13.6751
-42.7504 -40.3811 11.8638
-48.1201 -44.5972 9.27667
-44.9336 -39.1903 14.0931
-42.7087 -40.203 11.8127
-43.1649 -39.4674 12.2177
-53.0105 -44.3338 7.62822
-45.6024 -39.4852 14.312
-43.9155 -39.4586 12.8808
-47.7628 -44.5299 8.85216
-44.8479 -43.8682 10.4424
-46.2879 -44.1841 8.91311
-50.0932 -44.8379 8.46318
-47.0265 -39.6445 15.4432
-45.014 -43.6687 10.1739
-43.3398 -39.6067 12.9174
-50.2579 -44.415 7.89524
-42.7067 -40.5033 11.6822
-46.108 -44.0783 9.97659
-45.0245 -43.9164 10.2063
-42.34 -39.5399 11.4631
-43.8373 -39.5583 12.9839
-44.0535 -43.4056 10.4594
-43.3195 -40.3964 12.5482
-42.7167 -40.6639 11.9104
-44.0759 -40.2099 13.0089
-51.9284 -44.9768 8.36289
-47.9194 -44.2573 8.7975
-43.1896 -40.4368 12.1596
-43.7782 -41.4151 11.9914
-42.7927 -41.2806 11.5497
-42.7692 -41.7129 11.2815
-43.1113 -41.6888 11.3628
-43.1829 -41.587 11.35
-42.6398 -39.1095 12.1246
-49.1352 -44.5349 8.00765
-43.1608 -39.4679 12.7989
-45.5692 -44.0308 10.686
-44.904 -43.682 10.5105
-46.8466 -44.5431 9.04074
-43.672 -39.5059 13.0862
-49.6876 -44.844 9.66521
-44.4824 -39.1051 13.7635
-46.1809 -44.0732 8.66275
-46.7928 -44.5023 10.2328
-42.7502 -40.1664 11.8017
-44.146 -43.5563 10.504
-45.5482 -43.838 10.6003
-44.2169 -43.4233 9.31222
-43.2092 -42.0906 11.145
-45.4315 -43.8947 10.551
-45.2333 -44.1007 9.56534
-47.4004 -39.634 15.6571
-43.5555 -42.4775 11.1062
-51.2023 -38.7899 17.8764
-46.48 -39.6736 14.6711
-44.3997 -39.6236 13.5775
-48.7593 -44.6549 9.25065
-43.7763 -39.8884 13.0801
-49.3845 -44.8446 9.51564
-46.4886 -39.4763 14.7297
-50.7633 -44.9246 7.79222
-42.6357 -40.1798 11.965
-47.8076 -43.4831 7.87539
-43.3628 -40.3921 12.1733
-53.2133 -44.2194 7.35501
-49.1084 -44.6887 8.75592
-50.5981 -44.2849 7.46689
-44.1794 -43.3978 10.6184
-43.8304 -39.9084 13.0816
-42.7061 -40.0673 11.6936
-44.5554 -38.9688 13.8152
-44.3675 -43.6507 10.5458
-43.0117 -41.6566 11.2241
-51.4928 -44.6906 8.77324
-45.2465 -39.4883 14.0175
-46.0494 -43.677 8.76905
-45.8267 -43.9753 10.3841
-42.9711 -39.9457 12.3496
-53.8884 -38.624 19.1965
-47.5414 -44.5645 9.86748
-42.9223 -42.21 10.7183
-48.9547 -44.3936 8.02001
-52.9827 -44.902 8.48017
-42.608 -39.976 11.3786
-47.4586 -44.3044 8.37116
-45.1549 -44.3511 9.92311
-45.8266 -44.442 9.7839
-47.0381 -44.4633 8.93946
-43.122 -40.2596 12.0528
-49.5958 -45.278 9.21725
-48.5744 -44.9591 9.47566
-44.0585 -39.6059 13.3988
-42.9255 -40.8427 11.6995
-43.9952 -40.7677 12.323
-43.3394 -39.3062 12.9147
-44.0496 -43.4612 10.5959
-43.2031 -39.7826 12.2515
-42.8117 -38.8592 12.5859
-43.6983 -40.4761 12.4359
-44.3319 -43.4007 10.7931
-42.7592 -41.2239 11.5657
-47.7764 -44.6948 8.68394
-42.9471 -42.2446 10.9708
-43.5319 -43.5229 9.68575
-42.7545 -41.8376 10.7268
-44.2085 -38.7613 13.6721
-48.1461 -39.9316 15.6924
-43.0891 -41.8439 11.1596
-43.2877 -39.9769 12.1838
-43.8982 -43.292 10.4894
-52.8446 -44.749 8.42315
-42.8787 -40.8836 11.7769
-45.3957 -39.4816 14.0652
-45.0256 -43.3776 10.1725
-44.6662 -43.3346 10.6276
-42.6177 -41.3812 11.072
-52.9942 -45.0246 7.83434
-46.6519 -44.1177 9.84386
-43.0991 -40.6495 12.0293
-43.0805 -41.1613 11.3983
-49.8578 -44.9684 8.86831
-43.5327 -42.8828 10.8969
-42.9766 -40.2724 11.7993
-42.8743 -39.8351 12.0977
-44.4722 -43.7315 9.98361
-43.0685 -42.0298 11.3189
-55.0528 -44.019 7.43235
-44.0032 -39.4755 13.1796
-48.3409 -39.3867 16.9014
-43.6837 -42.56 10.861
-46.1245 -39.5108 14.5222
-45.0848 -43.8503 9.71749
-49.5559 -45.0772 8.56066
-45.1924 -43.9259 8.84676
-46.8426 -44.6453 9.07935
-43.5776 -39.4606 12.8614
-52.2691 -44.3983 7.55464
-53.9288 -43.7298 6.62108
-47.1481 -39.5732 15.3954
-42.6793 -39.5121 11.8996
-42.6814 -41.154 11.1494
-46.2829 -43.5579 8.38447
-43.1636 -42.0189 11.0725
-43.4952 -42.2255 11.1376
-42.8174 -39.5053 11.9368
-44.4492 -43.5386 9.85279
-43.2263 -40.9099 12.1892
-50.0896 -44.4952 8.17963
-44.2294 -40.504 12.4939
-45.3899 -39.5535 14.0568
-46.8093 -39.8302 15.1214
-45.4139 -43.969 9.90033
-46.3002 -44.5327 8.99481
-43.9119 -42.4044 11.6166
-51.2786 -44.8253 8.71428
-42.7708 -41.6196 10.704
-45.4379 -44.7485 10.0527
-47.4762 -39.8058 15.783
-48.8495 -39.5685 16.8442
-43.6034 -42.5818 11.2395
-43.7201 -40.6934 12.2791
-43.8299 -43.6918 9.76095
-43.4437 -42.4233 10.8982
-42.8648 -42.5903 10.5071
-46.1999 -44.2981 10.0216
-43.0366 -42.0771 11.1918
-42.7035 -41.8349 10.5575
-45.5077 -44.1376 9.99974
-45.0088 -43.8309 9.52913
-43.718 -42.5286 10.9458
-43.1944 -39.904 12.2888
-44.0099 -43.1996 10.6329
-42.8051 -39.7053 11.9811
-43.4655 -39.0657 13.1483
-43.9391 -42.6876 10.8108
-42.2591 -41.6961 10.761
-43.038 -40.9582 11.6149
-43.6517 -42.2196 11.2083
-42.8912 -39.5346 12.3042
-48.1776 -39.7034 16.276
-43.8368 -42.2252 11.2419
-55.8659 -44.3972 6.69212
-45.4137 -39.378 14.1268
-43.6547 -40.5212 12.3657
-44.4867 -43.3853 10.711
-45.3738 -44.1283 9.91971
-43.2637 -40.5116 12.5695
-48.2936 -44.5657 8.8214
-49.9827 -44.611 7.66795
-43.16 -39.0183 12.373
-42.4397 -40.038 11.7987
-44.6808 -43.9445 9.64001
-44.4757 -43.4201 10.3748
-45.1092 -43.7563 10.1908
-48.6676 -39.595 16.3228
-45.7849 -43.4584 8.39612
-53.1736 -44.5877 7.66928
-43.8386 -43.3752 9.97967
-44.1127 -43.6483 10.1884
-44.8911 -44.4934 9.45194
-51.9914 -44.8165 8.99841
-42.4943 -41.8551 10.4805
-43.3276 -42.143 10.9139
-43.663 -42.012 11.853
-51.7454 -45.0522 8.64698
-42.9968 -39.9044 12.161
-42.2442 -39.4975 11.7668
-49.2402 -44.9838 9.34126
-42.9184 -41.7756 11.4988
-42.8071 -41.4223 11.333
-44.5265 -43.785 9.84187
-49.351 -44.5527 7.98433
-46.6039 -44.3179 10.1172
-44.0219 -43.19 10.4984
-42.6248 -41.1341 11.323
-43.8162 -39.3284 13.1027
-42.9783 -41.9647 11.1024
-44.2014 -43.3667 10.8443
-48.7236 -45.1146 9.50303
-44.0792 -43.6973 10.2285
-47.8912 -44.6806 9.21615
-45.169 -43.8084 10.6023
-43.4502 -40.2289 12.8387
-44.1378 -43.8032 10.139
-48.1898 -44.7144 9.73032
-43.355 -41.2256 11.7833
-42.9732 -41.3725 11.5734
-50.7288 -44.6512 9.49341
-43.3727 -39.2924 12.6031
-42.7676 -41.2207 11.5373
-50.4233 -44.4977 7.38795
-46.1996 -44.1258 9.96754
-42.9917 -41.2483 11.4648
-45.7485 -43.4682 8.50073
-44.2034 -43.4817 10.3502
-44.7477 -43.2114 11.3194
-47.1407 -44.6936 8.65398
-44.1564 -42.7032 11.5088
-43.6046 -40.6008 11.8751
-50.9912 -44.9754 8.09372
-50.7535 -44.054 7.7425
-43.6349 -42.8416 10.4131
-44.3276 -39.3618 13.6926
-47.9588 -39.8445 16.0157
-47.3641 -44.9202 9.48904
-46.6343 -44.6684 10.0922
-44.4073 -43.051 10.6426
-52.891 -44.5042 7.87993
-44.8381 -39.4196 13.8698
-43.4306 -40.6788 11.3799
-44.5357 -43.5444 10.6888
-49.8259 -44.6233 8.39432
-43.685 -39.639 12.5567
-54.5476 -44.905 7.44359
-45.9812 -44.193 9.46017
-46.2192 -43.7149 8.69408
-44.7526 -39.0941 13.6051
-43.4689 -43.2416 10.1975
-43.9687 -39.212 13.1199
-43.9593 -39.7659 12.9371
-43.0338 -42.7729 10.5269
-48.9346 -44.9623 9.67941
-42.8996 -39.989 11.9928
-53.5758 -44.2932 7.30016
-46.4289 -44.3676 10.2935
-43.696 -42.9413 10.7993
-44.8122 -43.8713 9.80817
-47.4367 -44.7945 8.5713
-52.1295 -38.6332 18.3763
-44.0771 -42.7033 10.7617
-42.6082 -41.1317 11.4776
-45.6399 -39.0361 14.1279
-42.5315 -39.6881 11.7954
-48.5655 -44.5397 9.26461
-42.8239 -40.514 11.4499
-43.2828 -42.3974 10.9506
-45.3979 -43.6964 10.1676
-42.8651 -39.7235 12.0168
-44.6134 -38.8417 14.0557
-43.6165 -42.7331 10.7718
-50.9177 -44.8016 8.53198
-46.6116 -44.2952 10.171
-48.2474 -44.6739 8.73359
-44.3687 -43.428 10.3391
-42.8121 -40.5428 11.6354
-51.9019 -44.1999 7.37453
-43.8794 -38.9526 13.0847
-42.9305 -39.8229 12.2227
-46.7397 -39.6111 15.071
-43.8757 -39.8929 12.783
-44.9107 -38.9564 14.0632
-42.1567 -38.7695 11.5554
-45.5952 -44.2601 10.3112
-43.388 -39.9294 12.4283
-53.1268 -45.4443 8.41828
-51.2646 -44.4507 7.69505
-45.0451 -39.0464 14.2791
-44.7148 -39.7054 13.7043
-43.429 -41.7498 11.5213
-44.8453 -43.1013 11.0157
-43.21 -40.7529 11.6481
-42.7249 -39.1726 12.3524
-43.8846 -38.3473 13.242
-44.1739 -43.5633 9.68645
-45.934 -43.8726 10.3215
-43.8167 -43.3907 9.805
-43.3659 -39.5068 12.7773
-42.7827 -40.2383 12.0289
-45.8343 -39.4338 14.2714
-46.6234 -44.1836 10.0086
-45.0495 -43.4732 10.8648
-51.2722 -44.8407 8.60786
-42.9005 -42.0907 10.9911
-48.1959 -44.4207 8.76005
-54.7426 -42.9953 6.0538
-49.7819 -39.0331 17.3969
-46.3855 -39.5645 14.7109
-42.8286 -40.8633 11.8886
-47.3586 -44.2133 8.72158
-43.9032 -43.0131 10.908
-48.768 -44.9357 9.6706
-44.468 -39.211 13.5515
-46.4964 -44.1403 10.4433
-54.2237 -45.1258 8.68002
-43.47 -41.5015 11.9446
-45.1162 -43.7026 10.5674
-47.8766 -44.8783 9.45953
-43.5725 -39.1207 12.8516
-44.5236 -43.5594 10.3766
-44.3313 -38.9739 13.7622
-46.1357 -44.7867 10.0303
-48.5844 -39.6987 16.1468
-45.2107 -39.2448 14.2784
-43.6521 -38.7626 13.2373
-44.4611 -43.6682 10.3964
-44.6967 -43.7977 9.92474
-45.0897 -43.4123 10.66
-50.9183 -44.3221 7.85194
-43.1957 -41.259 11.6498
-43.2068 -39.2398 12.7209
-45.4093 -43.7882 10.2403
-45.4769 -43.9644 9.92069
-46.663 -44.352 10.0792
-45.1192 -43.8227 10.4629
-47.6554 -44.5051 9.5323
-43.6426 -42.9947 10.5604
-49.0093 -35.3822 26.7791
-43.8129 -43.0405 10.5218
-46.9876 -39.4988 15.8518
-54.4184 -45.0385 7.63609
-46.5518 -44.314 9.4184
-47.4663 -39.8421 15.8454
-43.0932 -41.757 11.6418
-47.5191 -44.3137 9.60251
-45.3221 -39.3855 14.4293
-42.4455 -41.0525 10.8524
-43.4975 -40.3359 12.7312
-45.5264 -44.0335 9.49802
-43.061 -40.5768 12.009
-51.5754 -44.6139 9.37926
-50.0933 -39.0051 17.5939
-45.5005 -43.8627 10.3218
-43.8137 -39.332 13.143
-46.7022 -39.5521 15.1569
-43.2234 -38.2541 12.9693
-42.7195 -39.6042 12.0535
-48.2952 -44.3983 9.11193
-47.4223 -39.8536 15.3008
-45.4386 -44.2279 9.74902
-52.1841 -38.5085 18.3783
-45.7097 -38.9271 14.4677
[...]
POINT_DATA 10000
SCALARS t float 1
LOOKUP_TABLE default
219.423
213.654
210.293
214.65
211.897
214.434
211.935
212.027
211.517
211.041
213.877
210.93
214.518
213.423
214.399
212.005
216.35
214.483
211.916
212.851
228.008
214.535
213.82
219.213
211.065
218.988
221.745
214.597
211.779
214.03
226.259
211.603
212.368
211.669
211.638
213.96
210.852
213.538
212.09
214.049
222.189
219.633
212.668
212.169
211.252
210.714
210.877
210.876
212.815
225.382
213.928
210.719
210.947
217.958
214.1
214.421
214.313
220.872
211.772
211.888
210.738
210.92
216.658
210.421
210.98
214.817
214.57
210.335
213.383
214.607
214.354
216.504
214.135
215.129
214.589
226.674
212.311
227.035
212.676
230.281
219.801
229.737
210.472
214.127
211.715
214.293
210.688
210.64
219.573
214.405
220.225
211.414
213.154
212.962
213.035
210.157
225.373
221.282
211.35
222.819
212.596
213.424
218.657
212.437
216.623
215.261
214.307
211.552
212.948
213.985
210.482
212.897
213.644
213.228
210.088
211.288
220.387
210.019
214.107
210.232
214.23
214.654
210.488
212.728
210.748
221.744
211.695
214.395
211.828
210.627
210.43
225.952
213.125
212.351
211.033
218.945
209.844
211.838
212.617
212.249
210.734
229.382
214.09
213.824
209.873
214.55
213.917
221.037
219.724
217.682
213.877
228.687
236.658
214.558
212.258
210.636
223.142
210.295
210.42
212.314
213.083
212.723
223.991
213.282
214.413
214.673
212.799
218.341
211.315
219.929
210.376
211.968
214.611
213.975
210.585
212.876
213.604
209.92
210.642
212.146
210.49
210.713
212.196
215.107
210.053
212.977
210.412
212.381
214.151
210.004
210.135
211.404
210.572
213.084
214.347
210.656
234.839
214.408
213.077
210.353
212.658
213.605
219.398
227.953
213.17
211.961
214.383
211.186
211.742
214.344
223.2
227.478
212.245
211.569
215.489
218.085
210.914
209.991
211.802
220.256
212.732
212.051
216.019
211.086
210.871
213.126
225.543
211.986
210.772
210.926
214.042
210.343
209.912
215.102
211.446
216.701
210.802
213.991
211.693
213.854
211.645
211.273
215.434
213.55
211.244
230.182
212.415
211.12
222.415
211.169
211.042
220.651
211.173
211.917
224.294
227.675
210.976
214.389
214.55
215.12
212.007
210.529
225.93
214.389
211.093
210.409
222.345
213.422
228.715
215.394
220.743
214.087
211.49
213.99
213.918
210.561
214.227
212.356
230.598
211.621
209.923
213.343
221.206
213.009
210.166
211.176
214.221
212.011
216.426
211.268
209.999
211.85
212.448
214.466
210.013
221.193
211.886
220.006
211.248
211.521
230.386
213.934
212.886
214.624
213.793
214.394
212.047
211.477
213.236
221.5
227.708
214.567
214.382
211.147
210.501
211.476
213.236
213.941
214.126
211.574
213.362
213.846
212.429
214.41
212.211
210.284
220.631
210.091
219.863
241.762
213.621
214.633
211.997
220.239
209.957
214.248
214.183
211.383
219.86
212.062
210.879
215.308
213.819
211.176
214.324
212.072
214.493
214.567
214.111
211.095
212.626
210.698
226.584
211.403
213.795
211.674
212.683
212.062
211.1
214.892
210.541
217.549
210.681
214.594
227.182
215.577
214.621
211.335
214.493
214.696
210.16
213.863
215.23
212.31
216.069
213.528
211.499
214.083
214.618
213.938
212.576
217.394
214.608
213.661
212.942
214.464
213.423
212.192
209.948
211.595
213.872
212.918
210.334
213.845
211.213
212.841
214.76
213.416
213.535
211.748
213.917
212.756
221.407
210.399
231.563
214.109
220.131
227.651
210.614
213.7
211.107
210.964
227.917
213.871
210.036
211.818
210.444
211.317
213.99
211.558
215.743
210.418
214.55
214.555
227.841
211.916
215.913
211.509
220.501
211.713
211.804
219.599
210.13
210.755
210.873
214.479
211.459
217.446
211.89
211.935
214.249
210.199
221.32
211.013
210.439
211.504
211.901
211.938
217.993
210.827
211.427
209.991
213.941
211.279
224.549
211.737
210.721
213.276
214.353
211.813
223.798
222.578
213.767
218.951
223.324
218.834
210.236
211.792
214.504
214.687
213.672
211.751
210.048
210.099
209.946
214.991
210.036
211.182
211.936
225.951
212.158
210.794
214.276
210.326
211.917
225.786
224.796
210.789
214.364
210.855
221.347
211.446
213.399
214.662
228.352
214.154
211.787
218.286
212.726
216.797
229.051
213.987
209.887
212.124
213.364
210.925
210.933
212.83
214.214
214.517
211.561
234.705
210.945
217.402
221.573
218.532
209.92
210.102
214.662
212.285
212.215
211.451
216.419
214.727
219.688
213.741
214.671
212.96
227.206
211.305
214.152
211.846
213.069
227.083
214.096
213.711
237.38
216.66
218.439
222.365
227.143
211.253
212.31
213.773
212.155
213.846
210.46
209.906
214.228
209.951
221.836
217.965
224.223
213.092
227.498
214.745
214.442
216.922
212.912
213.247
211.796
213.112
210.925
211.8
213.463
214.047
210.678
215.287
214.718
210.977
211.341
219.62
209.75
210.436
213.045
214.427
214.191
210.657
210.092
213.682
217.904
214.391
212.819
212.309
212.562
217.42
235.803
209.814
214.203
215.606
213.929
214.476
210.762
214.14
213.624
210.553
211.537
227.397
232.113
212.762
226.698
210.82
210.094
211.118
211.122
212.594
210.245
216.032
211.901
210.804
213.037
214.525
212.192
211.065
210.757
213.001
213.885
215.624
212.064
211.02
211.147
213.993
210.24
211.03
211.956
213.97
210.723
212.289
225.353
227.714
224.825
210.832
210.443
211.735
214.341
217.465
210.005
220.888
214.183
210.562
213.469
210.274
210.909
213.85
213.474
210.58
211.848
213.175
212.32
214.731
212.505
212.711
222.703
210.502
219.665
212.261
214.025
225.011
211.375
217.273
214.451
212.154
232.374
209.925
211.108
210.88
214.125
210.336
214.377
213.798
211.739
213.672
211.057
211.588
214.588
212.689
214.673
212.572
212.453
212.271
213.335
214.583
219.709
211.662
211.317
218.322
213.691
214.62
225.293
218.19
213.409
210.831
213.84
232.617
211.121
210.498
210.634
211.797
234.574
210.988
211.51
213.331
212.212
210.708
213.123
221.532
211.229
214.228
212.645
227.831
228.782
212.406
216.482
214.438
224.075
215.154
213.986
210.214
214.31
211.407
211.864
211.826
213.906
212.944
210.467
212.525
220.386
212.065
212.025
212.609
210.619
210.882
213.246
216.595
221.072
209.919
211.433
215.456
212.884
210.161
216.291
223.799
223.773
216.595
211.543
211.136
210.008
211.224
213.968
213.014
210.92
214.681
213.78
211.692
213.486
217.31
211.217
214.32
211.258
210.171
220.07
219.893
223.282
210.511
227.615
224.941
211.942
213.574
210.339
212.088
211.983
210.877
212.402
213.54
211.811
213.144
221.46
215.993
211.4
210.613
232.252
210.683
210.74
211.291
210.956
221.402
216.268
211.646
211.098
210.918
211.094
210.801
221.029
210.346
210.584
219.619
210.926
213.539
219.151
211.36
212.593
217.24
210.863
212.875
214.516
210.81
210.698
214.307
210.133
211.016
211.217
214.004
213.666
213.294
214.675
221.295
228.059
221.895
224.391
223.137
226.891
212.18
229.354
213.229
215.304
215.001
213.747
210.367
209.911
211.868
232.648
212.224
210.249
213.887
220.848
217.039
212.296
211.135
211.04
214.333
232.044
211.356
221.907
212.523
210.517
210.349
213.395
226.017
210.366
213.048
210.847
212.221
216.525
212.148
210.929
213.028
210.819
214.452
210.474
210.325
222.135
220.427
212.409
213.727
210.149
214.454
211.141
209.964
211.468
226.52
211.143
213.51
212.149
213.281
212.296
213.126
210.93
214.34
212.926
217.849
214.603
221.67
220.595
210.53
211.587
214.468
214.221
211.845
211.81
211.682
231.901
212.893
213.169
211.109
212.3
214.798
212.638
211.078
219.229
211.081
211.045
211.534
213.204
213.085
211.385
211.538
214.201
210.08
213.244
211.686
213.573
211.939
211.786
210.384
213.016
214.76
214.529
213.482
214.592
211.166
210.456
213.468
235.017
214.993
211.744
210.525
210.586
211.586
214.704
214.488
210.562
212.698
214.643
220.73
212.147
231.132
214.435
213.748
211.984
224.362
214.737
226.285
212.722
211.035
211.492
210.932
212.299
212.378
210.281
210.043
213.694
210.146
212.179
210.977
223.75
229.12
211.183
229.627
213.538
213.206
215.419
211.203
212.347
210.256
224.157
214.43
211.331
213.546
213.223
212.788
217.032
212.856
237.654
212.374
211.102
216.912
210.509
214.003
217.173
214.507
214.161
214.402
212.378
214.059
213.805
213.885
209.944
210.282
217.655
214.143
214.205
213.855
212.187
222.155
212.352
210.21
211.261
211.02
213.967
210.403
214.416
214.637
212.065
214.012
232.076
210.301
210.411
215.148
213.328
214.8
211.67
210.8
222.798
226.661
219.958
211.697
212.797
213.52
213.516
217.967
211.603
212.029
214.274
210.623
219.646
212.942
210.312
213.489
214.569
210.918
227.266
212.71
210.459
210.31
216.277
223.171
214.726
212.491
212.806
229.611
210.154
243.941
227.02
219.837
211.98
220.304
213.478
210.652
219.823
211.467
214.313
212.616
211.445
211.988
215.046
216.006
213.3
211.506
222.921
210.526
210.741
209.872
221.651
211.028
211.909
209.99
212.921
212.287
212.999
211.197
217.748
211.865
218.778
213.74
214.672
211.705
229.057
212.293
220.561
211.819
210.008
209.957
211.894
211.669
221.134
211.671
211.232
210.693
213.566
210.325
225.281
218.58
211.354
220.791
229.391
214.011
221.228
217.686
214.333
212.113
210.704
211.968
222.425
214.423
223.996
214.257
218.762
234.545
211.551
241.611
213.826
210.751
216.484
221.979
211.035
212.29
214.895
212.051
240.671
213.998
213.564
210.458
212.848
211.961
217.149
211.359
219.083
212.834
211.815
214.264
211.343
213.903
213.914
214.399
212.909
227.467
235.513
212.837
210.602
210.624
215.77
214.115
211.066
213.077
232.955
210.425
214.274
211.637
210.129
213.648
210.089
214.329
212.154
214.181
210.594
213.737
216.094
210.282
213.512
212.216
235.143
220.537
211.556
215.618
222.371
211.12
218.13
214.888
212.232
214.631
216.636
210.42
221.198
218.985
218.885
216.072
215.295
210.122
216.7
221.281
218.045
213.852
213.966
213.112
213.393
211.143
213.705
212.739
223.466
210.021
212.827
210.321
233.78
213.28
214.64
211.868
215.912
211.805
230.505
211.552
210.816
213.596
211.288
210.456
220.732
214.298
212.71
213.551
213.589
211.5
213.797
233.443
211.417
214.622
227.623
212.524
209.878
214.442
213.832
209.848
211.575
214.409
222.714
215.188
214.587
212.326
214.015
211.706
230.277
225.395
210.557
214.037
210.512
213.436
226.763
214.507
211.493
210.146
229.458
213.55
214.04
216.321
220.563
210.868
229.341
211.012
210.261
211.125
219.99
210.466
216.694
213.362
210.865
214.472
213.437
214.158
214.922
212.651
213.784
214.497
214.46
212.187
222.031
212.437
211.659
210.475
214.387
209.858
211.27
212.847
214.029
230.625
209.993
213.68
211.998
212.083
229.016
214.158
210.133
211.809
214.642
211.039
213.62
212.089
214.589
209.969
212.799
211.658
212.737
219.635
216.545
214.463
212.082
216.891
218.24
213.55
225.1
214.295
214.095
213.816
211.52
211.289
211.207
217.283
210.76
211.155
212.979
217.899
213.688
232.357
212.962
213.991
220.704
214.398
211.051
211.143
212.513
213.083
213.082
215.965
210.841
211.159
214.561
210.231
222.15
219.291
232.42
215.633
210.597
211.885
211.075
214.141
210.903
210.353
214.378
218.419
213.31
222.955
212.475
210.283
210.997
210.504
210.628
212.123
211.417
211.714
210.18
213.417
214.131
211.182
214.722
210
213.484
211.653
214.19
210.031
212.592
209.952
212.314
211.139
213.362
216.294
211.83
211.895
220.746
211.587
211.888
214.461
221.769
210.935
210.775
212.492
214.433
210.573
211.293
218.165
211.663
214.098
214.098
210.303
211.053
211.39
211.298
212.765
214.485
211.762
231.592
214.696
211.196
214.424
210.706
227.964
211.3
212.058
211.577
219.833
227.704
211.369
211.53
210.693
210.957
212.136
210.202
218.617
226.425
213.934
210.831
233.097
229.749
211.808
211.356
212.089
218.444
212.425
216.884
211.326
223.84
213.126
223.048
214.711
212.852
213.002
230.21
213.688
210.257
211.785
210.812
214.392
214.418
219.24
210.335
212.56
211.199
211.433
210.476
215.25
212.027
210.949
214.579
210.59
210.541
213.915
211.765
211.329
213.618
212.949
211.634
214.585
210.597
216.139
209.872
213.987
212.569
222.245
221.458
214.266
214.154
219.233
211.415
220.685
211.188
223.961
213.065
213.329
214.735
217.181
214.053
211.466
219.019
214.431
211.586
219.595
209.828
214.491
210.431
219.342
213.478
220.39
213.239
213.565
229.734
212.765
212.533
212.71
214.602
210.333
211.881
211.842
214.441
211.559
210.21
210.869
214.065
218.137
213.831
218.563
211.402
235.636
209.996
214.165
211.448
212.193
220.113
225.178
212.535
213.27
210.169
222.404
218.831
210.98
214.048
210.233
210.612
216.755
227.078
214.243
214.161
214.754
212.678
211.106
223.738
212.194
214.679
211.268
216.623
210.881
213.349
210.602
219.571
213.111
216.412
210.702
212.2
210.694
211.249
216.621
211.425
221.735
221.712
211.048
211.647
211.705
228.978
215.064
210.587
211.653
212.82
212.032
211.279
213.039
214.007
221.69
211.593
211.741
212.207
209.88
215.646
220.66
212.037
211.013
211.055
212.913
210.121
214.47
219.03
210.006
212.117
220.093
211.253
211.343
212.862
214.579
211.783
215.214
214.687
231.102
211.567
211.219
214.279
211.42
212.685
211.95
216.202
212.967
215.536
212.397
235.202
214.08
213.75
218.175
227.395
214.023
227.829
211.754
213.587
223.801
211.479
214.588
214.691
210.296
213.886
210.911
210.646
212.945
210.333
212.658
210.964
211.907
211.595
215.427
212.069
225.116
212.65
217.273
210.385
213.23
212.742
212.078
218.832
214.244
210.525
210.24
218.757
218.957
222.077
213.997
213.065
228.819
211.45
210.688
211.435
214.438
213.536
211.753
212.857
210.379
210.19
211.395
214.623
214.449
214.427
221.848
210.74
211.776
213.941
212.646
219.539
210.658
211.848
212.554
210.492
215.603
211.118
211.792
211.611
231.747
213.802
214.472
210.688
211.106
213.881
217.933
211.72
214.096
210.415
219.874
213.744
211.521
212.533
209.991
211.275
213.84
226.909
211.909
214.296
213.285
216.267
211.918
212.364
210.233
219.753
216.263
217.793
211.001
209.906
212.806
210.515
210.183
210.234
218.262
214.902
213.429
222.469
214.917
214.543
217.033
212.016
210.818
216.061
215.267
211.388
228.32
227.609
221.39
214.312
214.46
210.683
210.334
213.282
211.312
210.801
211.65
213.809
213.778
209.956
212.397
213.138
220.02
210.75
213.837
216.776
209.866
221.457
212.905
211.942
210.92
215.518
213.83
220.738
212.239
211.947
212.012
226.675
211.128
211.493
210.308
209.953
210.957
211.616
216.771
211.189
213.871
226.515
224.393
212.142
212.188
210.995
214.478
226.616
217.779
215.771
210.561
214.601
211.32
211.431
213.692
214
210.402
214.012
210.649
211.031
213.422
210.663
213.924
215.094
214.211
213.489
213.988
210.794
223.833
212.363
213.046
217.986
213.913
212.705
214.782
211.164
221.151
232.214
210.886
214.547
213.853
227.133
210.912
212.191
210.524
210.423
223.536
211.028
215.122
212.003
214.401
232.172
216.036
226.439
213.529
214.671
213.333
214.684
217.604
212.026
211.024
222.703
213.468
214.193
212.543
228.089
223.256
212.42
226.339
228.373
211.208
215.751
213.298
213.837
218.262
211.875
216.048
210.983
211.221
210.541
210.645
211.955
211.511
215.316
212.415
210.981
233.376
213.298
214.16
211.055
218.552
219.23
211.066
216.098
215.985
214.588
212.67
216.004
210.261
209.899
218.387
211.35
211.286
210.65
214.229
216.269
214.647
210.632
215.044
214.255
214.494
213.564
210.07
211.347
212.3
217.239
210.338
221.72
213.156
213.854
216.758
216.636
214.593
214.265
211.15
218.465
211.391
210.506
218.773
215.641
211.237
210.561
209.933
209.925
210.996
212.546
212.11
214.269
213.389
209.894
211.765
214.018
214.202
211.279
210.74
213.333
211.611
218.617
210.728
211.622
229.237
210.285
210.899
211.848
217.431
212.898
210.782
210.54
213.862
210.09
211.323
225.418
214.644
214.372
228.736
219.77
213.538
222.138
214.74
212.121
212.642
210.77
214.625
211.4
211.747
211.841
211.009
217.148
214.709
213.091
213.642
217.889
217.532
209.751
218.613
210.546
211.712
217.885
211.813
212.838
210.741
212.112
210.06
213.082
211.009
211.793
210.658
214.251
212.896
211.485
210.495
209.96
210.82
215.879
227.473
230.221
211.76
210.173
230.467
224.489
212.93
226.657
211.637
221.826
221.051
219.427
220.363
212.994
212.439
211.834
214.587
212.142
210.824
232.588
213.208
214.991
214.573
211.831
216.323
212.125
210.671
213.871
214.587
216.429
210.211
210.039
210.807
210.669
211.966
210.229
210.514
214.462
219.663
214.372
217.142
214.676
214.686
210.872
212.015
223.964
212.395
224.847
230.489
222.705
222.658
220.146
211.008
211.858
213.635
211.885
216.377
209.945
213.173
212.387
210.724
210.876
225.452
221.588
212.081
210.314
214.411
214.647
224.817
212.775
209.93
215.549
212.355
211.087
216.988
210.171
221.6
214.716
219.265
213.415
220.789
218.426
211.358
209.885
212.35
211.282
223.718
211.394
212.684
214.264
210.306
213.643
216.854
214.079
210.768
211.802
211.503
229.519
229.039
229.339
214.104
210.822
212.409
209.883
213.663
213.984
211.497
232.06
213.403
209.939
222.841
210.277
210.818
216.486
213.34
231.463
211.762
210.378
212.093
214.712
210.156
211.359
214.568
211.18
212.932
213.801
211.478
211.819
210.749
216.134
214.834
212.833
212.47
211.163
222.765
211.5
214.403
211.08
210.635
223.173
214.614
216.04
214.521
210.009
214.514
213.592
211.18
212.587
212.935
214.375
236.376
213.946
212.094
217.909
214.661
211.087
211.688
219.675
212.835
213.303
228.818
220.698
211.476
210.533
226.49
211.867
212.936
217.166
210.572
210.925
213.923
228.754
213.035
213.521
211.81
215.701
212.721
212.871
210.481
212.441
210.659
211.567
212.224
212.582
212.468
216.656
210.137
210.717
220.05
211.258
210.34
214.226
212.463
211.268
212.411
211.981
212.261
212.016
213.989
213.918
210.395
210.741
210.347
219.165
211.656
212.017
218.681
212.716
210.209
220.203
211.032
213.798
214.459
213.146
222.763
211.45
212.011
213.56
241.115
210.334
227.112
211.429
212.465
221.707
210.351
214.227
210.722
232.464
214.426
213.128
214.328
212.177
213.306
221.656
218.797
212.735
219.628
214.005
212.614
214.233
211.112
214.117
210.092
222.277
209.928
213.325
219.808
214.947
210.031
218.506
214.699
214.041
211.489
211.257
210.862
216.535
221.334
223.761
213.495
210.76
216.765
213.271
210.954
214.018
211.224
211.285
211.739
211.804
211.861
211.188
221.467
211.205
213.504
213.572
211.001
212.883
211.518
212.531
211.317
212.883
217.715
214.371
211.729
212.936
214.356
212.028
223.787
219.743
214.403
213.53
210.22
210.852
211.792
211.503
215.28
209.902
211.869
214.418
214.483
210.585
227.808
212.724
211.198
212.933
217.751
216.583
214.491
211.598
216.908
210.281
214.561
212.275
213.905
211.585
210.872
214.061
210.202
214.277
211.35
222.507
213.22
227.311
213.142
214.114
215.955
213.561
210.594
210.456
213.923
213.98
214.486
213.648
211.208
219.527
210.606
212.779
214.423
210.909
211.26
210.213
213.656
225.903
213.151
212.253
215.512
217.367
213.528
209.85
213.147
211.462
213.33
212.825
216.618
212.612
210.525
216.208
211.955
215.353
221.739
214.394
212.091
211.791
215.685
210.577
218.824
230.378
212.854
210.32
213.227
211.275
238.918
212.025
215.851
210.202
212.878
210.222
210.754
212.801
212.31
230.915
215.312
228.278
214.65
210.176
215.095
225.402
214.512
211.664
215.237
228.735
213.119
210.827
217.053
210.054
213.393
211.285
210.213
210.867
212.323
214.598
212.027
211.602
222.071
209.946
221.925
213.035
210.495
211.658
211.689
223.975
210.838
210.714
214.308
211.233
209.875
214.984
215.381
212.979
214.465
214.625
211.995
211.784
212.855
212.01
211.48
220.472
220.277
213.295
211.586
214.124
217.819
213.998
210.795
216.819
218.39
212.311
217.381
212.151
211.338
230.876
219.05
213.062
213.972
213.997
223.948
218.061
211.874
221.155
214.74
211.586
231.124
214.225
210.819
211.141
223.536
209.972
218.653
211.479
210.969
214.789
219.863
211.179
214.704
214.65
211.348
214.525
212.081
211.806
216.056
219.452
214.271
221.621
214.272
211.369
210.322
214.999
212.139
210.303
210.948
213.782
217.858
210.584
211.347
220.219
214.344
212.169
211.424
214.609
209.908
211.438
211.948
213.187
211.922
214.042
209.874
211.926
211.83
218.118
218.702
214.152
214.667
214.66
210.274
211.914
211.879
211.393
211.462
214.332
212.172
212.251
210.488
211.464
211.801
210.802
211.748
213.349
210.645
218.337
213.084
214.277
211.599
213.58
211.99
219.501
216.363
213.421
210.923
218.002
212.668
217.787
213.855
212.585
210.625
212.03
214.395
213.702
214.459
212.186
211.983
210.528
211.265
215.933
214.508
210.261
213.796
219.956
212.181
210.484
212.06
221.38
209.812
211.552
211.401
216.165
210.865
210.885
210.72
209.958
213.406
216.253
224.195
211.755
210.792
210.764
211.611
210.964
211.153
226.894
222.233
219.727
219.183
210.46
224.007
213.365
211.264
221.696
227.62
210.379
213.94
212.433
210.467
212.592
210.625