# vtk DataFile Version 3.0
vtk output
ASCII
DATASET POLYDATA
POINTS 10000 float
-48.5837 -44.3464 8.73465
-43.4946 -39.7788 12.8828
-43.2438 -41.8873 11.5523
-46.2886 -39.5057 14.9185
-43.1397 -40.7127 11.8991
-45.3533 -39.2774 14.3709
-45.9995 -44.4611 10.0575
-42.8008 -40.8418 11.7563
-42.4824 -40.5227 11.7313
-43.4568 -43.126 10.465
-47.05 -44.191 9.79118
-45.0046 -43.6283 10.5557
-45.7323 -39.3068 14.5617
-43.1591 -39.8569 12.7178
-43.9794 -39.5186 13.255
-43.0939 -40.7415 11.6502
-46.904 -44.8088 9.34092
-45.0942 -38.9401 14.0658
-42.698 -39.558 12.0749
-42.9474 -39.4197 12.236
-51.9448 -44.1265 7.54623
-46.0312 -39.7986 14.6001
-43.7887 -39.5187 12.9077
-50.8886 -44.9454 8.71035
-44.4591 -43.6882 10.4606
-47.4696 -44.4879 8.88366
-48.7941 -44.3227 8.56341
-46.9892 -39.528 15.3461
-44.9257 -43.9556 10.0831
-43.4963 -39.4103 12.8673
-50.2707 -44.2069 7.92079
-42.4927 -39.8175 11.6064
-45.1537 -43.6016 9.90988
-45.9019 -44.2821 9.92442
-42.9266 -40.3652 11.3524
-43.9166 -39.9496 12.9762
-44.7481 -43.4143 10.597
-42.8761 -38.4653 12.3822
-42.8226 -40.3766 11.9687
-43.6064 -39.6663 13.041
-49.4315 -44.4701 8.33212
-48.0203 -44.474 8.94784
-43.0629 -40.0143 12.44
-43.6422 -40.9468 12.1358
-42.8151 -40.506 11.4931
-42.4434 -41.7004 11.3595
-43.1402 -42.3114 11.3947
-42.6216 -41.4104 11.3947
-42.5789 -39.299 12.1003
-50.4971 -44.2101 7.94585
-43.1612 -39.4311 12.8698
-45.0449 -43.8204 10.7175
-45.0179 -43.805 10.479
-46.7957 -44.7169 9.11849
-43.843 -40.0524 12.8621
-47.8359 -44.5533 9.68637
-44.7265 -39.2181 14.0826
-46.7004 -44.0822 8.69834
-46.7555 -44.4238 10.2054
-43.3379 -40.8815 11.6189
-44.2583 -43.3155 10.3361
-45.1461 -44.0317 10.5367
-44.7311 -43.9404 9.30058
-43.3582 -42.1537 11.2618
-46.3459 -44.3127 10.5118
-46.8227 -44.9575 9.4155
-47.3157 -39.6045 15.7205
-42.8897 -42.0859 11.0756
-51.1462 -38.7248 17.8341
-46.4652 -39.6784 14.6509
-44.448 -39.0178 13.3786
-49.8221 -44.9735 9.46627
-43.9581 -38.9204 13.3932
-48.7587 -44.5981 9.64133
-46.5332 -39.6358 15.0594
-49.0122 -44.1525 7.90786
-43.019 -40.2743 12.2247
-49.2013 -44.7258 7.83696
-42.5744 -40.2623 12.1312
-51.7254 -44.2432 7.54192
-48.7662 -43.9753 8.97445
-49.8851 -44.1829 7.60043
-44.3943 -43.4091 10.5713
-43.7568 -39.7193 12.807
-42.6927 -40.2805 11.6529
-44.6698 -39.0723 13.9961
-44.4607 -43.3828 10.6155
-42.7996 -41.9291 10.9437
-49.6855 -44.6721 8.75559
-45.648 -39.4784 14.1905
-47.5563 -45.0972 8.7113
-45.1858 -44.0674 10.1113
-42.6611 -38.5731 12.2443
-54.0462 -38.6457 19.294
-47.321 -45.0256 9.70093
-42.6959 -42.4167 10.5391
-52.1315 -44.5455 7.92472
-49.0554 -44.4946 8.47844
-43.0974 -40.3092 11.9013
-46.1711 -43.5784 8.53612
-45.9927 -44.3149 9.82188
-45.1973 -43.7471 9.9733
-48.315 -45.0438 8.92401
-43.1782 -39.8424 12.2808
-47.9787 -45.1136 9.2088
-47.9998 -44.7054 9.57542
-44.0455 -38.8518 13.353
-43.2605 -41.0089 11.9473
-43.2408 -39.3968 12.2642
-43.7974 -39.5513 13.0846
-42.9579 -43.0268 10.4984
-43.0785 -39.6499 12.2105
-43.023 -39.5481 12.6796
-43.313 -40.3287 12.5547
-44.5778 -43.4937 10.596
-43.1294 -41.1482 11.6074
-46.7782 -44.6704 8.90548
-42.8201 -41.9928 10.6244
-45.0098 -44.4079 9.68676
-42.676 -42.1293 10.5192
-43.9274 -38.172 13.5106
-48.219 -39.9853 15.884
-43.3312 -41.9756 11.2522
-43.1737 -40.5424 12.3556
-44.2117 -43.3241 10.4128
-50.2097 -44.378 8.50452
-42.9478 -39.9984 11.8954
-45.3904 -39.1242 14.0971
-45.8522 -44.0783 10.3443
-42.8954 -42.5516 10.4802
-43.426 -41.7754 11.1323
-51.4381 -44.44 7.7084
-46.1213 -44.1808 9.98952
-43.3955 -40.3956 12.2423
-42.8413 -41.3135 11.1718
-51.0051 -44.6261 8.9086
-43.4951 -42.6943 10.5525
-42.9904 -39.8914 12.0671
-42.567 -39.7304 12.1942
-44.5762 -43.8777 10.0503
-43.1984 -41.4733 11.3337
-55.1371 -44.3751 7.4093
-43.7386 -39.1858 12.8692
-48.5291 -39.254 16.8007
-43.5929 -42.4733 10.8814
-46.0955 -39.8845 14.5405
-45.4696 -44.3615 9.71216
-46.0316 -43.431 8.51481
-45.3321 -44.157 9.01544
-46.415 -44.2619 9.03264
-43.5585 -39.9577 12.8848
-54.5753 -44.3602 7.55172
-53.8458 -44.0888 6.82179
-47.2409 -39.5366 15.496
-43.2103 -40.1558 12.0564
-43.0054 -41.3926 11.1121
-47.6613 -44.9461 8.57472
-43.5491 -42.5964 10.9772
-43.7499 -42.6808 11.0698
-42.472 -40.071 11.8651
-45.1738 -44.1551 9.96315
-43.2722 -39.4434 11.8018
-49.4293 -44.4566 8.09332
-43.9111 -40.3652 12.6571
-45.5069 -39.707 14.0772
-46.6901 -39.6058 15.0378
-47.1553 -44.4443 9.83934
-45.1543 -43.9089 8.77766
-43.9546 -41.8242 11.9554
-50.5615 -44.7514 8.68754
-43.5741 -41.9851 11.0479
-46.2842 -44.1855 10.3419
-47.3862 -39.7127 15.6005
-48.5652 -39.3732 16.9041
-44.2292 -42.729 11.1832
-44.0692 -40.3658 12.1649
-44.3845 -43.675 9.59345
-43.2602 -42.3534 10.6773
-42.9565 -42.1825 10.7312
-44.8906 -43.661 9.87787
-43.1451 -41.8578 10.8992
-42.7914 -41.9238 10.554
-45.402 -43.609 10.1101
-44.4166 -44.1417 9.38265
-43.9696 -42.9135 10.7666
-43.0739 -40.7964 12.2669
-43.9997 -42.9833 10.8821
-42.7585 -39.0523 12.075
-43.5182 -39.239 13.0074
-44.3064 -43.087 10.9142
-42.5831 -41.641 10.9028
-43.086 -41.0464 11.5646
-42.7422 -41.4161 11.005
-43.8457 -39.3268 12.7347
-47.8695 -39.7294 15.8653
-43.5149 -41.7942 11.4013
-58.212 -45.0128 6.71297
-45.3173 -39.5128 13.9149
-43.427 -39.1199 12.5173
-45.9246 -44.0089 10.5017
-45.2038 -44.2346 9.93296
-43.5064 -39.585 12.6715
-48.925 -44.3635 8.93087
-48.7627 -44.0644 7.85108
-43.3654 -40.2421 12.3214
-42.8334 -40.8875 11.7085
-44.6009 -43.844 9.61793
-44.8486 -43.7921 10.3148
-44.1882 -43.1298 10.289
-48.2659 -39.5483 16.1956
-47.1263 -44.688 8.45558
-51.3643 -44.3648 7.58965
-43.055 -42.9997 10.2206
-43.8621 -43.4207 10.4011
-46.6448 -44.5416 9.5281
-51.4968 -44.8645 9.01384
-42.7155 -42.2844 10.4666
-43.2474 -42.0982 11.1945
-43.8608 -41.5374 11.8582
-50.512 -44.5795 8.61653
-42.8064 -40.6829 12.0574
-42.5927 -40.6661 11.6777
-49.4647 -45.0377 9.24503
-42.6242 -41.0443 11.2227
-42.8459 -41.4651 11.3247
-44.5845 -43.8723 9.79054
-49.3092 -44.1859 8.10229
-47.2766 -44.4615 10.2809
-44.5012 -43.5092 10.6129
-42.132 -40.48 11.1985
-43.6548 -38.9932 13.1799
-42.9869 -42.4653 11.1363
-42.9257 -42.6812 10.6564
-45.9552 -44.7075 9.56921
-43.9286 -43.8356 10.1678
-45.6295 -43.5484 9.25713
-45.0338 -44.0416 10.2803
-43.1184 -39.7347 12.7374
-45.4334 -44.429 9.94859
-47.8249 -44.7179 9.52405
-42.9776 -40.5834 11.4435
-42.5818 -40.4511 11.4851
-50.6707 -44.8755 9.60078
-44.0379 -40.0283 12.6551
-43.3154 -40.4852 11.8221
-50.0683 -44.5776 7.46076
-46.7189 -44.2931 9.95669
-42.7236 -41.8626 11.2978
-46.9322 -44.6717 8.60789
-45.0414 -43.8197 10.3361
-44.4023 -43.3423 11.3028
-47.5363 -44.3454 8.72942
-43.4772 -42.0437 11.3793
-43.7278 -39.6792 12.3871
-49.416 -44.5251 8.02406
-49.9608 -43.9511 7.73686
-44.174 -43.1846 10.6984
-44.3326 -38.8617 13.6158
-47.8863 -39.7476 16.051
-46.114 -43.8367 9.10949
-47.8673 -44.5224 10.2699
-44.5502 -42.9802 11.0606
-54.4391 -44.5646 8.03602
-44.9516 -39.9302 13.9637
-42.8474 -41.4187 11.4356
-43.7098 -43.0732 10.5024
-48.6506 -44.2925 8.39831
-43.5785 -39.8051 13.0893
-51.8636 -44.2499 7.45737
-46.6772 -44.7506 9.37011
-47.4173 -45.0319 8.61667
-44.7832 -39.3835 13.7867
-44.479 -44.0918 10.1263
-43.8059 -39.2428 13.4687
-43.5934 -39.5115 12.771
-43.8874 -43.2782 10.3672
-49.6309 -45.0627 9.68077
-42.8025 -40.8608 11.9318
-52.2469 -44.6113 7.41663
-47.6786 -45.0573 10.2142
-42.9043 -42.6801 10.6364
-44.8538 -43.9874 9.92469
-47.9707 -44.4393 8.5756
-52.8669 -38.6388 18.5084
-43.9033 -42.8059 10.8656
-42.7403 -40.8363 11.3882
-45.4102 -39.0111 14.3758
-42.7807 -40.2233 11.9992
-49.48 -45.0036 9.32721
-43.1721 -41.4903 11.3773
-42.5984 -41.5389 11.2423
-45.2015 -43.6823 10.1479
-42.9812 -40.3411 12.365
-44.9235 -38.9183 14.0898
-43.1953 -42.5626 10.647
-49.925 -44.7187 8.67621
-46.2605 -44.6089 10.1507
-47.7475 -44.7821 8.79126
-44.7873 -43.7176 10.7801
-42.6231 -40.653 11.4541
-52.7803 -44.2812 7.37055
-43.6532 -39.004 13.2593
-43.2105 -39.9994 12.3519
-46.8375 -39.793 15.1083
-43.7814 -39.9914 12.7122
-44.6582 -39.3825 13.9942
-43.1826 -40.8165 11.8555
-45.8298 -44.2349 10.2999
-42.9532 -39.0503 12.5465
-48.6282 -44.3237 8.38159
-49.3567 -43.9112 7.65766
-45.0212 -38.8328 14.1912
-44.5264 -39.363 13.5752
-43.4829 -41.4538 11.5806
-44.0931 -43 10.9614
-43.0369 -40.9244 11.72
-42.7579 -39.5423 12.379
-44.297 -38.9314 13.4426
-44.3514 -43.7295 9.96611
-46.0221 -44.274 10.327
-43.097 -43.3737 9.7789
-43.4925 -38.8147 12.8913
-42.4169 -39.0179 11.9847
-46.173 -39.4598 14.6347
-47.42 -44.3976 10.2474
-44.3763 -42.9712 10.9564
-48.1682 -44.7331 8.65046
-42.0947 -41.564 10.8027
-49.7626 -44.8186 8.85107
-56.3422 -44.558 6.46237
-49.6248 -38.9909 17.401
-46.5236 -39.5994 14.7929
-42.9854 -39.4879 12.0331
-46.439 -44.103 8.60092
-43.0739 -42.1338 11.1061
-51.4433 -44.8145 9.56426
-44.2472 -39.4812 13.3157
-46.4463 -44.1891 10.2716
-51.7226 -45.1064 8.7712
-43.5092 -41.2093 11.7482
-44.6333 -43.7465 10.3518
-50.2643 -44.3517 9.26285
-43.6006 -39.834 12.6336
-44.9076 -43.7687 10.1136
-44.7451 -38.6286 13.9834
-45.6238 -44.2426 10.1391
-48.4773 -39.5903 16.287
-45.5183 -39.5795 14.4238
-43.7978 -39.6822 13.1379
-44.9113 -43.5536 10.3857
-44.9412 -43.9406 9.75203
-45.6883 -43.9095 10.7758
-51.8621 -44.5724 7.91671
-42.9571 -41.4169 11.5276
-42.8734 -39.2552 12.5872
-45.8755 -44.2514 10.04
-44.9649 -44.1371 9.7882
-44.7413 -43.7021 10.276
-43.8455 -43.0726 10.6464
-46.3985 -44.428 9.62055
-43.9596 -43.0734 10.5001
-49.8316 -35.3623 26.8051
-45.0538 -43.9536 10.4235
-47.2382 -39.7085 15.9028
-52.0342 -43.9031 7.49202
-44.8206 -43.8714 9.4475
-47.6393 -39.8452 15.7804
-43.0149 -41.7939 11.4751
-49.4625 -44.8692 9.55639
-45.4212 -38.8459 14.3138
-42.1435 -40.8771 10.8189
-43.5023 -39.5347 12.4301
-45.5571 -44.2414 9.47207
-43.2515 -40.3799 12.4518
-50.0467 -44.9141 9.50962
-50.234 -38.9019 17.2541
-44.7422 -43.6708 10.3759
-43.7307 -39.1864 13.0402
-46.8462 -39.6785 15.3591
-42.977 -38.4037 13.0567
-42.6658 -39.9918 12.1504
-48.2997 -44.699 8.82764
-47.56 -39.8891 15.3772
-44.9737 -44.0036 9.82118
-52.7643 -38.4577 18.4975
-45.6252 -39.3762 14.4754
[...]
POINT_DATA 10000
SCALARS t float 1
LOOKUP_TABLE default
220.039
213.966
211.175
214.698
212.014
214.606
212.04
211.651
211.696
210.738
213.423
210.882
214.642
213.871
214.178
211.488
215.995
214.326
212.635
212.937
229.016
214.724
213.886
219.945
210.929
219.014
221.278
214.571
211.949
213.895
226.179
211.701
212.784
212.628
211.166
214.002
210.722
213.272
212.26
214.098
222.901
218.529
213.333
212.546
211.331
210.84
210.841
210.975
212.76
225.946
214.009
210.502
211.038
217.413
213.911
214.049
214.556
220.523
211.826
211.407
211.243
210.909
216.594
210.642
211.201
215.545
214.569
210.253
213.377
214.598
214.001
215.419
214.167
214.399
214.669
226.403
212.855
226.604
212.721
229.011
218.388
228.813
210.663
213.816
211.616
214.454
210.579
210.035
219.78
214.416
220.116
211.897
213.096
212.966
213.911
210.577
225.677
221.838
212.07
222.006
213.218
212.387
218.62
212.964
216.719
214.669
214.083
212.103
212.933
214.072
210.571
212.841
213.812
213.548
210.657
211.357
218.892
210.475
214.02
210.723
214.08
214.685
210.647
213.131
211.027
221.592
212.119
214.309
211.482
210.737
210.481
227.585
212.279
212.831
210.628
218.73
210.588
212.523
212.92
211.993
210.869
229.281
213.807
213.878
209.908
214.687
213.864
222.265
218.424
218.1
213.981
228.283
234.65
214.542
212.441
210.51
221.128
210.064
210.28
212.115
212.386
211.964
224.738
213.671
214.442
214.631
213.149
220.243
212.079
220.179
210.303
211.533
214.583
213.839
210.602
212.555
214.722
210.284
210.134
212.95
210.013
210.699
211.996
216.035
210.094
212.935
209.939
212.684
214.014
210.093
210.033
211.312
210.309
213.667
214.596
210.945
233.538
214.301
213.368
211.187
212.555
213.672
218.639
226.927
213.016
211.563
214.539
211.384
211.381
214.386
222.116
228.586
211.418
210.959
214.906
217.981
210.833
210.515
211.814
220.72
212.452
211.58
216.525
210.79
210.849
213.439
224.808
211.759
210.586
210.955
214.103
210.3
210.195
214.668
211.572
216.836
211.475
213.894
212.448
214.944
211.232
211.356
214.89
213.601
211.826
229.555
212.48
210.704
221.012
211.376
210.892
220.142
210.875
213.078
225.244
227.879
210.293
214.171
214.502
217.696
211.886
210.477
224.471
214.597
211.043
210.702
222.526
214.182
229.672
215.832
220.818
214.321
211.752
214.373
213.781
211.082
214.311
212.113
229.617
211.925
210.249
212.616
221.219
213.052
209.902
211.105
214.513
212.36
216.1
210.938
210.681
211.868
213.185
214.403
210.304
220.305
211.853
219.608
210.271
211.256
230.189
214.182
213.111
214.658
213.745
214.551
211.888
211.544
213.543
222.643
228.573
214.438
214.229
211.273
210.125
211.563
213.269
214.076
212.343
211.51
213.495
213.837
212.609
214.608
211.848
210.213
220.595
210.053
219.095
236.412
213.57
214.657
212.497
221.284
210.323
215.18
214.137
211.689
219.434
211.547
211.244
216.558
213.608
211.895
214.287
211.859
214.349
214.681
214.151
211.262
213.687
210.6
225.766
211.193
213.651
212.094
213.435
211.466
210.349
214.376
210.77
217.609
211.155
214.6
229.6
215.632
214.619
211.047
214.928
214.411
210.311
213.201
215.351
213.334
215.234
213.782
211.224
213.98
214.631
214.157
212.768
219.335
214.619
213.254
212.941
214.628
213.57
211.602
209.878
211.353
214.131
212.877
210.372
213.111
210.701
213.084
214.639
213.266
212.582
211.696
213.186
212.028
221.828
211.335
232.997
214.036
219.952
228.614
210.687
213.72
210.903
211.261
227.955
214.07
210.128
211.533
209.856
211.636
213.986
211.332
215.966
210.293
214.08
214.57
226.748
212.048
217.404
211.79
220.146
211.835
211.487
219.754
210.014
210.479
210.554
215.09
211.796
218.286
212.414
211.675
214.469
210.292
222.473
210.62
211.061
210.809
211.552
212.89
217.626
210.018
211.18
210.153
213.777
211.502
223.87
211.602
210.912
213.036
214.035
211.827
223.287
222.062
213.707
219.01
224.353
219.336
210.427
211.362
214.418
214.571
214.7
212.27
209.996
210.949
210.205
214.874
210.633
210.945
211.552
225.938
212.317
210.828
214.38
210.296
212.222
224.583
224.317
210.711
214.388
211.597
223.503
211.122
213.701
214.657
230.291
214.273
212.373
219.221
212.996
217.604
227.268
213.886
209.82
212.391
213.808
211.156
211.298
212.63
213.006
214.645
211.587
233.86
211.394
217.007
220.79
219.132
209.979
209.994
214.657
212.303
212.01
211.563
216.57
214.721
220.233
213.123
214.197
212.61
226.584
211.463
214.157
213.228
211.94
227.566
214.07
213.49
237.162
216.709
216.913
222.713
227.761
211.094
211.521
214.548
212.87
213.435
210.895
210.045
212.883
209.905
221.827
217.438
224.093
213.058
227.702
214.91
214.492
217.296
212.672
213.384
211.64
212.452
210.046
212.389
212.873
214.127
210.555
215.816
214.704
211.367
211.185
219.111
209.914
209.953
212.979
214.209
214.084
210.463
210.387
213.621
217.606
214.398
211.932
212.424
212.838
217.63
232.1
210.207
213.13
214.891
213.41
214.326
210.016
214.336
212.714
210.025
210.846
227.47
234.136
212.733
225.623
211.278
210.013
211.531
210.33
212.717
210.44
216.1
211.871
210.188
213.571
214.527
212.803
211.159
210.315
213.271
213.894
216.539
211.668
210.251
211.269
214.008
210.443
211.375
211.635
214.047
210.493
212.267
225.718
228.769
225.285
210.953
210.182
212.337
214.493
216.642
210.526
220.956
214.235
211.62
213.891
210.605
210.523
213.62
212.76
211.217
211.689
213.218
212.253
214.806
211.486
213.034
221.728
210.636
219.812
212.041
213.845
224.926
211.71
216.408
214.37
213.396
232.973
209.896
211.045
210.562
215.167
210.369
214.625
213.817
211.659
213.817
210.306
211.194
214.586
212.981
214.347
212.554
212.408
212.374
212.872
214.558
219.151
212.446
211.462
218.741
213.626
214.494
224.952
217.475
213.424
210.798
214.063
230.132
211.935
210.64
210.762
211.534
235.021
211.166
211.807
213.764
212.389
210.921
213.013
220.937
212.004
214.271
213.162
226.697
227.86
212.49
216.106
214.484
223.115
215.845
213.791
210.994
214.386
211.361
211.823
211.106
213.877
212.857
210.856
213.165
221.082
212.077
211.839
212.652
210.3
211.028
213.032
215.078
220.798
210.053
211.371
216.678
213.003
210.131
216.41
224.429
222.614
216.902
211.281
211.439
210.346
210.723
214.008
213.031
211.359
214.705
213.824
212.354
213.282
218.014
210.81
213.316
211.01
210.451
220.477
220.856
224.848
210.294
229.565
226.103
211.417
212.679
210.219
212.53
211.97
211.19
212.581
213.459
213.038
213.393
220.363
216.204
211.099
210.272
233.273
210.106
210.179
210.619
210.756
220.941
216.656
211.688
210.32
211.144
211.155
210.444
220.064
210.217
210.194
219.832
211.316
213.028
219.633
211.614
213.244
218.684
210.633
212.902
214.51
210.703
210.44
214.874
209.848
210.979
211.431
213.882
212.367
213.222
214.682
220.002
229.186
221.562
222.875
222.603
226.734
212.319
231.509
214.521
214.503
214.763
214.15
211.576
210.223
212.032
232.34
212.56
210.025
213.997
220.091
216.6
211.527
210.853
211.462
214.043
231.062
211.021
220.684
213.119
210.59
210.483
213.33
225.791
210.902
212.497
211.225
212.031
217.099
211.684
211.338
212.842
210.719
214.096
210.328
210.539
222.339
220.282
212.433
213.531
209.938
214.347
210.464
210.048
211.49
225.768
210.929
213.587
212.126
212.936
211.913
212.065
211.521
214.129
213.195
218.494
214.568
221.453
221.488
210.441
211.291
213.883
214.228
212.052
211.678
211.282
231.839
213.241
213.149
210.922
212.974
214.677
212.476
211.751
219.759
211.586
210.613
211.546
213.444
213.18
210.876
211.217
214.087
209.841
213.287
211.776
213.321
212.013
212.233
210.691
213.162
214.109
215.052
213.687
214.584
210.929
210.861
213.412
238.367
216.352
211.642
210.721
210.562
212.064
214.652
214.03
210.441
212.819
214.343
220.536
212.869
232.628
214.479
212.409
212.177
225.052
214.801
226.159
212.613
211.074
211.502
211.718
211.808
212.595
210.246
209.931
213.193
210.293
212.388
211.394
222.351
228.909
211.115
231.123
213.56
212.293
214.289
211.28
212.751
210.805
223.003
214.285
211.402
213.404
212.791
212.239
214.921
212.724
238.166
211.339
210.775
216.619
210.677
213.949
216.755
214.55
214.112
214.451
212.011
214.153
213.802
213.977
210.65
210.204
218.038
213.911
214.162
213.989
212.35
221.796
212.151
210.319
211.951
210.796
213.872
210.69
214.205
214.586
211.223
213.861
232.879
210.785
210.476
215.494
213.994
215.583
211.707
210.501
222.719
225.825
219.68
211.987
213.087
213.443
212.118
218.139
211.515
211.537
214.388
210.006
220.22
212.365
210.061
213.546
214.747
211.104
227.454
212.515
209.861
210.342
217.25
222.676
214.675
213.367
213.417
228.654
210.115
242.363
227.795
220.288
211.685
220.208
213.238
210.728
220.02
212.111
213.924
213.113
210.98
211.719
215.654
215.75
214.872
211.027
222.706
210.403
211.184
210.621
222.014
211.189
212.193
210.082
212.665
211.494
212.73
210.727
216.745
211.614
218.731
213.65
214.658
211.866
228.089
211.987
221.333
212.306
210.188
210.078
213.358
212.642
218.525
211.609
211.148
210.041
213.581
210.561
224.526
218.162
210.927
221.725
229.924
214.136
222.029
216.098
214.064
212.553
210.577
211.475
222.407
214.463
226.686
214.186
217.951
234.19
211.055
241.829
213.802
210.457
216.887
222.862
210.58
213
214.922
211.7
240.634
214.263
213.573
210.107
213.586
212.281
218.437
210.79
220.662
212.684
211.91
214.391
211.809
213.201
214.029
214.175
213.252
227.31
237.121
211.179
210.62
210.807
214.912
214.408
210.82
212.917
234.022
210.082
214.36
211.324
210.48
213.682
209.948
214.092
212.606
214.142
211.14
213.705
215.162
210.261
212.936
213.084
236.156
220.903
211.398
215.144
222.375
211.072
218.245
214.769
214.162
214.598
215.888
210.844
219.453
220.163
217.546
216.651
214.729
210.196
218.567
222.501
217.508
214.312
213.636
213.405
213.199
211.906
213.926
211.843
223.608
209.746
212.486
210.25
234.571
213.012
214.596
212.648
216.636
211.681
232.005
211.606
210.477
214.004
211.13
209.849
221.611
214.241
212.706
212.879
213.633
211.161
213.507
232.54
210.908
214.527
227.268
212.635
209.97
214.282
213.854
210.35
211.59
214.417
222.27
215.187
214.418
212.373
214.109
211.583
231.298
225.16
209.763
214.229
210.433
212.844
225.118
214.464
211.391
210.376
229.108
213.457
214.194
217.007
221.105
211.038
229.031
210.523
210.379
211.119
219.706
210.029
215.836
213.36
210.976
215.26
213.243
214.091
214.477
213.116
213.979
214.324
214.708
213.049
221.835
214.369
211.622
210.597
214.235
210.096
211.137
213.011
213.815
232.056
209.951
214.508
212.433
211.155
231.109
214.25
210.101
211.977
214.546
211.948
212.799
211.852
215.092
210.105
212.225
210.987
212.203
218.832
215.12
214.418
211.645
216.813
218.114
213.766
226.378
213.664
213.999
214.027
211.276
211.972
211.73
216.571
210.733
211.635
213.362
218.283
211.891
232.172
212.527
213.841
218.964
214.287
211.35
211.344
212.895
212.423
213.059
215.143
210.755
210.763
214.508
209.953
222.273
218.421
232.497
215.537
210.564
212.072
211.256
213.78
210.866
210.197
214.393
218.541
213.335
223.309
212.648
210.229
210.835
210.368
210.799
212.919
211.66
212.851
210.048
213.036
213.905
211.283
214.813
210.205
213.335
211.908
214.166
210.919
212.951
210.484
212.766
210.96
212.1
216.436
211.992
211.636
221.683
211.745
211.744
214.342
221.29
210.992
211.127
212.782
214.361
210.746
211.148
218.68
211.482
213.433
214.217
209.964
211.457
211.462
211.784
212.276
214.433
211.554
233.164
215.967
211.377
214.801
209.917
228.44
211.759
211.962
212.434
220.024
228.496
211.123
211.264
210.718
210.469
213.042
211.014
218.713
224.873
213.797
211.236
232.417
229.177
211.686
212.105
211.912
217.963
212.27
216.507
211.361
224.056
212.477
224.023
214.402
212.63
213.279
231.301
213.366
210.596
211.527
210.784
214.356
214.252
218.572
210.778
212.521
210.821
211.574
210.708
214.596
211.878
210.903
214.664
210.545
210.484
214.436
211.561
210.912
213.763
212.863
211.636
214.65
210.068
214.737
210.006
214.176
211.828
220.882
221.489
214.388
213.847
219.696
211.185
221.411
211.042
224.525
213.206
212.893
215.015
217.446
213.474
211.231
217.98
214.37
211.895
218.697
209.879
214.293
210.717
219.325
213.252
220.503
212.838
213.872
230.267
213.327
212.919
212.359
214.667
210.3
212.308
211.078
214.273
211.544
209.978
211.34
214.035
218.136
213.261
216.705
211.988
238.515
209.88
214.261
211.175
212.246
218.407
225.407
213.456
213.278
210.675
223.636
217.712
210.622
213.758
210.304
210.763
215.596
227.524
214.206
214.294
214.679
212.166
210.789
223.456
212.176
216.107
210.979
216.156
210.78
212.835
210.507
220.108
213.065
216.104
210.9
212.707
210.965
211.57
216.577
212.135
219.897
221.448
210.937
212.076
211.577
227.328
215.603
210.05
211.925
212.724
212.579
211.179
213.816
212.71
222.105
211.522
211.989
211.836
210.083
215.975
221.216
211.983
210.957
211.202
212.646
210.731
214.555
218.395
210.346
211.387
221.235
211.107
211.378
212.075
214.599
211.722
215.645
214.632
229.59
211.68
211.35
214.354
211.101
212.555
212.666
216.36
213.34
216.27
212.74
234.625
214.162
213.831
218.931
228.955
214.022
228.228
211.997
213.738
223.827
210.763
214.572
214.92
210.51
214.11
211.183
210.562
213.108
210.52
212.451
211.163
211.776
211.677
216.328
211.811
225.476
212.348
217.817
210.373
213.255
213.5
212.08
217.906
214.195
210.976
210.165
219.147
216.836
223.367
214.038
212.19
229.648
211.699
211.297
211.428
214.707
213.674
211.082
212.534
210.675
210.396
211.459
214.404
214.655
214.489
222.123
210.906
211.606
213.583
213.427
217.9
211.564
211.829
212.423
210.534
214.459
211.337
211.208
210.652
232.398
213.562
214.675
210.848
210.922
213.889
218.799
212.048
214.376
210.511
218.555
213.795
210.344
213.176
209.979
210.549
212.823
227.644
211.495
213.877
213.371
216.275
211.513
211.981
209.913
219.703
216.986
217.384
211.081
209.921
212.91
210.25
210.614
210.241
219.115
214.896
212.161
223.438
214.138
214.427
217.786
212.311
210.715
215.372
214.698
211.466
227.603
227.059
221.957
214.062
214.605
210.883
210.63
212.934
211.447
210.863
211.468
213.846
213.853
209.956
212.713
213.072
221.569
210.462
213.362
216.66
210.405
220.802
212.857
213.215
210.724
215.356
213.841
220.126
212.702
211.715
211.803
226.769
211.106
211.803
210.922
210.079
211.615
211.968
215.229
210.953
213.365
225.493
224.166
212.67
212.385
210.818
214.535
226.362
216.434
215.925
210.339
215.898
211.322
212.875
213.784
213.816
210.176
214.027
211.228
210.647
214.071
210.439
213.892
216.328
214.318
212.723
213.681
211.038
223.553
212.094
213.126
218.626
213.971
212.784
214.056
211.308
220.868
231.949
210.957
214.279
213.472
227.537
210.913
212.879
210.637
209.994
224.752
211.037
216.598
211.963
214.335
233.119
214.468
226.28
213.939
214.598
213.091
214.688
218.265
211.955
210.906
223.625
213.45
214.032
212.556
230.468
225.168
212.285
227.278
228.779
211.188
215.343
213.258
214.088
218.165
211.658
214.937
210.563
211.25
210.375
210.544
211.568
210.84
216.08
212.745
211.172
232.296
213.724
214.04
210.797
218.25
219.151
210.603
215.717
216.078
214.463
212.787
215.118
210.253
210.559
218.965
211.188
210.729
210.565
214.102
217.8
214.612
210.265
214.579
214.133
214.563
213.322
209.951
211.862
211.871
215.154
211.001
222.402
213.054
213.819
216.74
215.874
214.568
214.081
210.497
219.648
211.953
210.799
218.792
215.175
210.838
210.558
210.56
210.449
210.967
211.583
212.611
214.433
212.6
210.016
211.155
214.018
214.131
211.167
211.071
213.045
211.693
220.419
210.731
211.337
225.811
210.502
210.321
212.864
218.48
213.474
210.299
210.265
213.918
210.586
211.336
224.798
214.426
214.365
231.085
220.488
212.857
221.607
214.594
213.002
212.759
210.519
215.084
210.724
211.594
212.704
211.276
217.761
214.577
212.711
214.408
218.039
218.787
210.803
217.987
210.664
211.399
216.293
211.379
212.122
210.675
211.808
210.168
213.084
210.147
211.614
210.18
214.194
211.894
211.851
210.379
210.148
211.168
215.856
227.908
231.159
211.971
209.908
230.893
224.755
213.121
227.53
211.075
223.115
221.465
218.347
221.439
212.938
212.715
211.842
214.614
212.346
211.446
232.194
213.008
215.574
214.559
212.464
216.499
212.666
210.651
212.906
214.61
216.155
209.972
210.048
210.598
210.868
211.456
210.502
210.472
214.242
218.24
214.578
219.138
214.624
214.657
210.614
211.601
223.778
212.067
224.224
229.443
222.112
221.399
221.499
211.181
212.212
213.539
211.683
215.024
209.974
213.285
212.275
210.544
210.16
225.355
221.171
212.07
210.168
214.567
214.62
224.057
212.177
209.78
216.143
212.205
210.965
216.574
210.463
221.417
214.927
218.157
213.367
220.854
218.081
211.673
210.39
213.025
211.464
223.826
211.52
212.885
213.833
210.507
212.732
216.795
213.713
210.213
211.805
212.142
226.958
228.256
231.179
214.14
210.532
212.325
209.842
214.514
213.972
211.262
232.294
213.557
210.15
224.143
210.314
210.701
216.566
214.016
233.1
211.475
210.219
211.956
214.659
210.738
211.586
216.135
210.392
214.144
213.562
211.479
212.705
210.751
216.125
213.34
212.83
212.386
210.864
221.641
212.146
214.694
211.533
210.509
222.432
214.558
215.894
214.412
210.89
214.696
214.814
211.161
212.342
212.756
214.072
236.904
213.935
211.809
219.416
214.608
210.992
211.995
218.056
212.911
213.508
228.209
220.065
211.122
209.991
225.427
212.99
212.167
216.694
210.758
211.134
213.847
226.934
213.013
213.396
211.422
214.078
212.284
212.119
210.344
212.398
210.564
211.192
212.523
212.855
212.027
215.114
210.416
210.051
220.841
210.814
209.995
214.088
212.483
210.757
212.759
211.942
212.096
212.055
215.293
213.997
210.547
211.262
210.717
219.046
211.463
212.474
219.494
212.737
210.163
221.162
210.865
213.01
213.754
213.092
223.002
211.789
212.04
213.594
240.752
210.286
226.174
212.036
212.542
221.109
210.616
212.381
211.189
231.915
216.128
212.973
214.949
212.447
213.501
221.573
219.022
214.613
220.944
214.035
213.875
214.116
211.053
213.852
210.146
219.688
209.996
213.591
219.667
215.106
210.6
218.36
214.577
213.371
211.633
211.164
211.283
217.655
221.359
223.288
213.396
210.647
217.527
212.995
211.467
213.972
211.902
211.42
211.858
213.141
211.932
211.391
222.59
211.632
213.632
213.5
210.731
211.933
211.678
212.996
211.123
213.328
217.455
214.436
212.892
212.785
214.041
212.149
223.179
220.257
214.681
214.557
210.389
210.854
212.891
211.382
215.95
210.196
211.506
214.56
214.351
209.898
226.187
212.617
211.209
212.113
218.812
217.583
214.593
211.639
216.119
210.641
214.297
211.907
214.015
211.551
211.087
214.538
211.044
214.178
211.314
222.212
212.004
225.342
213.368
213.823
218.064
213.68
210.918
210.755
213.075
214.521
215.292
213.572
210.986
220.197
210.496
213.104
214.264
210.9
210.964
210.044
213.717
225.589
213.944
212.473
215.934
217.153
213.488
210.108
213.657
211.303
213.691
213.097
217.653
212.193
210.821
215.624
211.87
215.137
221.439
214.229
212.165
212.936
218.129
210.183
218.745
230.07
212.356
210.084
213.361
210.903
241.035
213.054
215.787
210.582
211.404
210.535
211.45
212.457
213.162
234.694
216.668
228.252
214.654
210.118
216.714
224.453
214.602
211.536
212.69
228.196
213.443
211.054
216.845
210.312
214.042
211.088
210.307
211.401
212.907
214.621
211.956
211.595
221.989
209.951
222.375
213.134
210.156
211.261
211.98
223.922
210.439
211.163
213.817
211.532
210.187
213.823
214.978
213.284
214.027
214.696
212.061
211.868
214.318
212.311
211.156
220.854
219.713
213.7
211.345
214.33
217.198
213.433
211.563
216.34
218.922
212.58
216.909
212.232
211.685
231.455
218.397
213.173
213.988
213.837
225.442
217.949
211.458
221.597
214.795
211.151
232.422
214.437
211.158
211.083
222.847
209.876
219.798
211.2
211.261
214.663
219.463
211.83
215.329
215.46
210.946
214.504
212.594
211.214
216.057
218.202
214.066
220.261
214.147
211.337
210.201
214.993
212.37
210.39
211.157
213.42
217.546
209.93
211.36
218.785
214.372
212.291
211.172
214.609
210.516
210.983
212.321
212.8
212.701
214.258
209.879
212.545
211.535
216.857
219.591
213.825
214.408
214.626
211.025
212.68
212.855
211.949
211.865
214.344
212.438
211.984
210.954
212.461
212.463
211.108
211.647
213.408
210.689
219.596
213.037
214.518
211.847
213.976
212.303
219.232
216.761
212.251
210.991
219.967
212.026
218.889
213.406
211.706
211.13
212.338
214.209
213.872
215.122
212.096
212.424
209.874
211.329
215.457
214.435
210.582
213.755
219.688
211.75
210.31
212.344
220.243
209.838
212.063
211.754
214.859
210.969
210.887
209.979
210.346
212.969
215.799
225.071
211.926
211.429
211.442
212.636
211.301
211.396
225.014
221.975
218.113
218.749
210.641
224.061
213.776
211.067
221.196
230.244
209.936
213.541
212.928
210.353