# vtk DataFile Version 3.0
vtk output
ASCII
DATASET POLYDATA
POINTS 10000 float
-14.4215 -24.182 4.85741
-2.09667 -43.8529 11.728
-8.15077 -40.4663 10.6114
-0.165978 -45.6257 14.5277
-2.99751 -43.9901 12.0851
-5.91202 -37.2579 13.76
-14.2878 -27.1762 6.98475
9.28265 -48.709 10.8572
3.64087 -46.557 11.4314
-13.3706 -28.9555 7.87412
-12.6624 -31.0396 7.36928
-14.4507 -29.9951 8.30139
-3.40645 -42.2922 14.0416
1.93601 -47.296 12.4709
1.01656 -45.2145 13.6024
-6.84094 -42.8677 10.6526
11.1751 -51.9655 8.35482
-4.56081 -40.1339 13.024
0.89893 -45.2279 12.0448
4.72561 -42.9786 13.1561
7.97082 -50.3677 6.6921
-3.76076 -41.6583 14.083
-0.55827 -44.5169 12.6336
-14.8941 -26.2688 5.61627
-13.2041 -30.6547 8.45783
-14.1385 -27.3619 5.13266
-2.31708 -46.5479 6.72413
2.50711 -47.2102 15.1141
-13.5925 -28.155 7.63312
2.55968 -45.3339 12.4629
-14.672 -30.2578 5.62298
3.96662 -45.2959 11.7029
-14.3856 -25.8675 2.70429
-15.8712 -26.758 6.82823
-5.12705 -45.0353 10.1613
-0.0335814 -43.226 12.6176
-13.1213 -29.7996 7.87027
-2.05121 -45.9469 11.4911
2.35447 -47.1762 10.9696
-2.60898 -41.358 13.1742
4.72082 -49.0968 6.24759
-14.2726 -30.2109 6.22716
-1.74071 -41.6487 12.7766
-7.36059 -42.8855 10.3849
0.0342865 -43.836 11.967
-8.61094 -41.3706 9.97163
-13.7916 -30.1354 8.15166
-7.31083 -42.571 10.7452
3.26098 -45.3015 11.5915
-2.01233 -46.387 6.19903
2.16395 -43.4623 12.6023
6.66639 -50.0058 10.3545
-14.5555 -29.0327 8.07549
-14.6594 -29.7717 6.11234
-4.54487 -41.8146 12.9652
8.31979 -50.5817 9.31563
0.890001 -45.7501 13.6035
-13.4572 -23.4751 4.48789
-12.2975 -35.5639 9.3466
-1.04615 -44.9434 11.2664
-12.7599 -33.8852 9.21132
-13.1352 -34.9518 9.14745
-13.0281 -25.4446 6.04409
-11.0244 -37.1155 9.61841
-15.4864 -24.3493 5.87525
-11.8263 -25.9796 7.18872
0.188681 -45.1336 15.6254
-12.4978 -33.6573 8.96833
-1.70066 -44.6843 17.8116
-1.8511 -43.6108 14.4591
3.54868 -47.5391 13.6768
-12.8861 -30.1451 6.4732
-0.588478 -43.6751 12.4348
-14.6813 -29.1383 7.57656
-2.83384 -43.4119 14.4199
9.22125 -51.336 6.49436
1.14935 -45.8472 11.0285
-16.6028 -24.1507 3.21747
2.19291 -45.4234 11.3761
-11.1754 -37.0515 5.57425
13.9859 -52.1444 7.98531
-6.31569 -43.1124 6.06458
-13.1335 -34.6122 8.18459
-1.51119 -44.5653 12.9747
0.476504 -46.7906 11.0037
-2.1589 -41.752 13.3687
-14.3928 -28.476 7.89995
-9.58657 -39.7722 10.4973
-7.76613 -41.8629 6.61579
0.168999 -45.4693 14.1307
-15.7351 -27.7766 5.31691
-13.5801 -28.2974 7.13305
-3.15878 -41.4371 12.3576
-7.68634 -41.7459 19.075
-14.576 -27.4012 6.98568
-15.4747 -26.0429 6.45645
-15.3654 -28.8993 5.42945
13.7492 -51.6682 8.14284
-10.945 -38.1822 9.90233
-15.0972 -24.4959 3.95267
-14.4786 -29.0757 7.5624
-13.9082 -27.992 7.00332
-15.6615 -26.3861 5.71415
-1.15804 -45.4522 11.1436
-12.9157 -33.523 7.23533
-13.615 -32.4868 6.66594
-3.99949 -41.2878 12.8855
-12.0675 -36.433 9.24831
-2.64808 -43.3755 12.5259
2.81017 -45.0523 11.7066
-13.3315 -28.8559 7.31572
2.27546 -45.3152 12.0804
3.9085 -46.1385 12.6743
-0.47902 -45.5248 11.9119
-13.2106 -31.8244 8.55186
-0.904741 -46.2185 11.0632
3.91419 -49.2643 6.92666
-8.5311 -37.403 10.8069
-14.6907 -25.4003 5.03897
-13.9378 -27.6136 7.51318
-2.22651 -42.1914 13.5492
5.51903 -48.6356 15.7918
-13.8004 -30.1912 8.16866
2.10958 -45.0609 12.9431
-14.6404 -27.5206 6.98814
9.21644 -51.4747 7.64749
3.19236 -47.7624 11.0542
-4.91047 -39.5464 13.4156
-14.4856 -26.6531 6.23669
-12.6315 -31.6059 8.68566
-7.2406 -43.1877 9.54506
7.82203 -51.1433 7.251
-15.2383 -26.9912 7.04793
-1.8841 -43.2035 12.2265
-4.4404 -42.8692 11.4063
16.3761 -53.3885 8.88828
-13.1477 -34.155 9.49899
0.896062 -45.3479 11.9567
-0.631551 -43.4774 12.0817
-13.1791 -29.2059 6.85478
-0.194792 -44.9759 10.9687
-9.90689 -38.7085 5.96667
-1.79868 -40.8394 13.0534
3.9056 -47.3443 16.8975
-12.4634 -35.2251 9.87324
-3.15338 -41.8566 14.2468
-13.6044 -26.561 6.43291
-13.7634 -29.2851 6.99741
-14.6705 -23.3096 3.9794
-14.3267 -25.4655 3.09014
3.23738 -43.0594 12.8051
7.8967 -50.5914 6.54577
0.978491 -48.5152 5.57563
0.636325 -45.7273 15.1643
3.22649 -45.6001 12.4247
-10.8806 -36.5606 9.79034
-14.9289 -23.9677 3.60539
-12.1928 -35.1923 9.15128
-5.11482 -43.6686 10.7884
-2.58761 -44.5799 11.4745
-15.3055 -26.4265 5.08452
-1.25105 -42.6535 12.822
13.7647 -52.4496 7.87094
-3.90792 -42.6524 12.0242
1.16498 -46.1029 14.5669
1.59699 -46.8405 14.7729
-14.3496 -25.3904 2.39424
-14.7003 -24.2207 4.70819
-8.87965 -40.1198 10.6225
-15.0547 -27.3046 5.62704
-13.3805 -29.821 7.9906
22.6627 -53.1401 10.1049
4.40346 -48.2128 15.5028
5.41114 -48.5438 16.3535
-11.0145 -38.3094 10.1542
-2.12116 -44.092 11.8213
-14.9168 -28.5552 6.10904
-15.1044 -28.299 7.48309
-12.5413 -29.3248 7.92073
-15.3223 -25.397 5.4265
-13.1808 -32.1672 8.62845
-14.9156 -27.2597 5.43164
-12.0332 -29.8422 8.78222
-13.6329 -25.7291 1.33982
-12.2871 -35.6252 9.62531
-1.97999 -43.648 12.2278
-12.4358 -29.9956 8.22778
-1.77414 -45.4006 10.9224
3.58241 -46.5602 11.6418
-10.2323 -38.812 10.0663
-12.5518 -35.1222 9.02409
-1.8585 -45.9842 10.6798
-7.60319 -43.4715 10.2377
3.68558 -47.0163 12.0197
7.39108 -49.2825 16.1058
-13.966 -30.7492 8.24916
2.72372 -52.9299 7.49525
-1.75863 -43.5295 13.8028
-3.08903 -42.2515 12.7902
-13.0982 -32.5111 8.89933
-12.206 -31.4348 7.32072
-0.805333 -43.5812 13.1001
-7.6641 -41.7883 6.48858
5.59196 -50.8389 6.07344
0.0797867 -43.253 13.0329
1.13281 -42.5077 13.1938
-12.2593 -28.3658 7.08924
-13.7515 -27.2632 7.36171
-12.6178 -28.4248 7.58505
3.95243 -47.9997 16.2798
-15.6324 -21.2695 3.1191
3.89182 -48.8632 5.80686
-15.0035 -25.8689 0.0395391
-13.7126 -29.301 7.15273
-13.7303 -32.107 6.97777
3.24402 -49.007 7.96884
-13.2036 -30.2782 7.94197
-13.3513 -32.4743 8.79987
-1.96269 -43.9302 12.2655
2.77031 -49.3037 6.97735
-2.78095 -44.9258 11.8243
-3.4776 -45.0048 11.0476
-10.1264 -39.1004 7.13576
-13.5948 -31.0405 8.11497
-11.9352 -36.339 9.96473
-11.9253 -28.6917 7.85421
-16.1407 -28.4171 5.22152
-9.53858 -40.6479 8.52038
-15.0495 -29.5004 7.31392
-10.4177 -39.1419 10.3316
0.434639 -43.538 12.9814
-12.9052 -33.0347 8.84067
-12.2612 -30.8293 8.65843
4.7366 -49.821 8.81634
-15.2402 -27.331 6.54025
-12.9398 -28.2904 6.26015
-12.5322 -35.0082 9.33859
3.62703 -48.2719 12.132
-14.0545 -31.6351 7.26808
1.00391 -48.8808 8.82035
-5.2982 -43.4813 10.7569
-3.02979 -45.4962 11.3664
-12.5478 -26.9544 4.04249
2.6825 -45.176 12.0141
-7.87978 -42.3507 9.99609
7.65397 -50.258 6.14165
-14.522 -27.1418 6.4216
-7.79514 -42.5655 9.80005
-18.2561 -22.6851 3.02766
-12.2251 -31.6728 8.34418
-13.4532 -33.1594 8.96683
-14.699 -26.9003 5.13702
-9.81816 -39.6204 10.2507
-1.90814 -43.4907 12.0816
10.7617 -51.3582 6.72714
-16.389 -26.119 4.40097
-15.1773 -27.1076 6.55446
-2.92098 -43.0491 13.3992
1.56913 -46.0979 16.1984
0.359842 -48.2834 8.64631
25.4132 -52.1609 10.0092
-13.9983 -29.8005 8.11198
6.076 -52.7605 7.91419
-3.6627 -42.0022 13.1851
-8.77853 -38.8303 10.7259
-12.0534 -33.465 9.04763
-15.3596 -26.2052 4.95752
-4.49947 -41.7227 12.8295
-3.94989 -45.6619 6.50147
-13.7433 -24.2667 5.48276
-13.8198 -22.3456 4.23007
-2.48058 -39.814 13.3659
-13.1947 -25.9056 6.58058
0.954345 -44.4868 12.5579
-3.70856 -39.9273 13.0691
-13.4442 -30.1029 7.46268
12.2502 -50.6915 8.73824
-0.669964 -41.8311 12.7162
-15.6865 -27.4642 4.76993
-8.24189 -41.841 7.67688
-14.0679 -28.9632 8.04414
-15.7953 -26.5046 4.30043
20.6859 -52.5562 8.83589
-3.44527 -43.1259 18.4668
-12.9355 -32.8854 8.43475
-6.194 -43.7583 10.0536
-3.26823 -43.156 13.7233
-2.62638 -43.9126 11.5769
-14.6114 -24.3843 5.06899
-1.78177 -45.1366 11.1518
-13.2648 -30.2245 7.99803
-14.5597 -26.3196 2.92598
-6.50674 -43.8272 10.2382
-2.96042 -42.3292 13.7484
-12.7571 -30.0606 8.41297
13.0495 -51.4994 7.49812
-9.96734 -39.8341 8.55287
-15.3047 -26.3784 5.31691
-12.1162 -31.239 7.92159
-6.81949 -42.7856 10.1686
2.6229 -50.5831 6.94075
-3.02551 -41.0321 12.8672
3.50358 -46.1492 11.9996
-1.64534 -44.3091 14.5739
-2.06405 -41.5891 12.8543
-4.91879 -41.4186 13.4429
14.4194 -50.4158 9.17328
-13.2599 -29.6972 7.97315
0.958237 -44.0024 12.9892
10.0132 -51.6583 8.04104
-14.9536 -30.0184 5.51734
0.257729 -45.4841 14.177
7.6206 -49.2919 14.113
-5.15144 -39.3687 12.0784
-12.9979 -32.9209 9.09635
-12.9488 -32.8251 8.49286
3.29659 -44.8657 12.4221
-1.06518 -43.42 12.9133
-15.0504 -25.9336 5.12159
-12.9398 -31.0822 8.283
-13.789 -28.7539 6.02348
0.00857026 -43.9647 12.3152
1.22609 -46.0014 12.0124
-0.761424 -44.6775 13.749
-14.3203 -25.5061 6.31154
-9.42057 -40.8326 9.92343
10.8156 -51.2901 7.54322
-12.9239 -31.6527 8.46342
-11.2081 -37.1073 5.47181
-6.08052 -43.944 5.27555
2.76536 -47.3514 16.9705
0.664122 -46.0843 14.3989
-1.66316 -46.4066 11.1245
-15.4659 -26.3388 4.51541
-12.1229 -36.8977 9.26849
20.5262 -52.0176 9.20739
-3.79607 -40.6918 13.2273
-13.6941 -26.8444 6.91715
12.757 -52.4883 8.54267
0.719014 -44.3109 11.8197
-13.9918 -31.0679 8.68165
11.7783 -50.4825 8.49043
-0.559278 -41.479 13.1236
-11.6497 -34.1619 8.90918
-3.61207 -41.6939 13.1392
17.4189 -52.3457 9.8051
4.07769 -47.7865 16.3171
-5.04806 -40.1668 13.549
2.36348 -42.7252 12.9004
-13.8328 -29.2262 8.11349
-12.6544 -26.7811 7.13072
-12.3038 -33.3412 8.89784
6.41083 -50.1049 6.76435
-2.28934 -45.6461 10.8829
2.11314 -45.7997 12.2398
-15.5437 -28.1831 6.91565
-13.6524 -26.099 5.48516
-13.1926 -30.522 7.78379
-14.7687 -27.7847 7.27446
-14.3778 -29.9076 7.2982
-12.6132 -31.1778 8.17068
6.82645 -37.1973 26.885
-12.6673 -29.0683 8.18472
1.90816 -46.4346 15.8647
2.32601 -51.6899 7.34017
-14.0473 -25.1718 0.370483
4.85508 -48.252 15.4646
-7.46273 -42.3118 11.0341
-15.0394 -28.1037 6.84245
0.85389 -45.8698 14.097
-5.01872 -44.5157 10.141
-1.24611 -42.0892 12.9362
-14.0304 -24.4959 0.720781
2.13859 -47.4241 11.6089
13.9726 -51.9953 8.74554
1.52832 -46.1388 17.5832
-13.5699 -29.031 7.35225
2.96899 -47.658 12.2974
3.22217 -47.3832 15.3152
0.726386 -43.253 13.6765
5.33869 -47.1243 11.5159
-14.5442 -26.0289 1.26738
5.04739 -48.546 14.8911
-13.8006 -27.0158 6.38275
-3.89311 -43.3895 18.112
-2.85197 -42.4724 14.2989
6.21616 -46.4221 12.2981
-15.1119 -29.0707 7.70713
-12.4066 -35.6377 9.40036
[...]
POINT_DATA 10000
SCALARS t float 1
LOOKUP_TABLE default
255.913
211.01
213.806
213.619
212.14
215.486
236.979
212.223
210.255
230.229
234.001
226.959
213.856
212.913
213.098
213.715
221.946
213.033
210.419
210.47
234.757
214.095
211.505
248.244
226.395
252.448
236.601
212.606
232.05
210.64
248.094
208.716
270.572
238.667
214.184
210.638
230.137
211.899
210.859
212.434
238.861
242.846
211.284
214.821
209.665
216.377
228.192
213.834
209.086
240.968
210.011
214.089
228.738
243.878
213.279
217.957
213.264
259.807
220.907
210.92
222.169
221.699
246.143
218.986
249.297
238.017
212.831
223.521
211.945
213.736
213.292
241.019
210.794
231.937
213.869
235.826
210.663
269.68
209.776
247.256
224.534
241.81
227.675
212.497
210.992
212.663
230.137
215.387
237.541
213.487
251.302
235.433
211.244
212.184
236.892
242.031
250.031
223.979
217.565
263.393
232.103
236.468
247.861
211.041
235.083
239.245
212.664
221.09
212.176
208.892
234.056
209.962
211.224
211.301
225.918
211.11
233.565
212.711
253.382
233.21
212.988
211.192
228.077
211.559
236.82
226.779
211.31
213.969
242.953
225.177
217.883
229.532
236.731
211.081
211.405
218.617
220.687
210.374
210.076
237.626
210.701
243.858
211.867
210.599
218.84
214.041
241.579
236.406
263.73
268.812
210.138
235.586
242.752
213.149
210.551
218.053
266.426
222.032
212.094
211.465
253.145
211.414
225.049
211.831
213.44
213.255
272.715
256.991
214.499
248.212
229.342
218.058
211.632
210.68
216.808
211.318
243.954
232.865
229.953
250.409
225.506
249.884
224.708
279.63
219.673
211.44
227.839
210.937
210.149
216.591
222.718
211.446
215.41
211.179
210.728
227.427
224.368
213.191
212.307
224.003
234.591
212.027
238.627
237.906
211.553
211.472
236.313
234.544
232.485
210.967
271.895
241.959
291.2
235.2
236.747
226.665
229.672
224.488
211.65
232.635
212.074
211.516
234.825
228.504
217.989
230.827
252.388
224.677
233.844
216.209
211.436
224.34
225.174
220.399
240.522
242.644
221.166
213.086
234.321
220.373
212.251
211.905
262.323
209.587
215.964
238.922
241.292
216.881
273.325
227.167
223.385
252.465
216.1
211.079
234.359
259.873
240.436
213.094
211.808
221.898
219.149
228.436
222.581
213.06
213.486
222.938
254.296
213.067
238.017
251.703
263.118
212.93
241.652
210.782
212.694
232.971
221.909
210.722
256.023
230.222
229.131
260.176
221.899
212.091
226.705
214.892
213.515
211.242
254.11
211.113
229.296
269.013
214.703
213.424
226.673
228.504
224.738
251.097
230.05
214.813
230.454
211.988
210.15
213.769
211.589
213.963
220.72
229.476
211.501
224.087
249.046
213.494
212.449
211.278
222.908
226.347
210.083
211.75
252.669
227.53
244.582
210.424
210.871
213.221
243.524
216.992
228.249
226.452
247.952
247.274
210.718
213.51
211.489
258.242
220.736
221.11
213.038
237.834
220.529
209.343
224.923
223.51
211.706
223.618
212.915
217.055
210.922
214.203
210.437
228.62
236.976
223.915
233.999
211.006
210.68
237.316
249.442
230.759
234.633
234.04
228.297
212.865
228.386
211.954
226.236
286.259
211.6
213.585
237.855
213.476
214.05
211.506
284.759
211.696
220.193
211.126
233.726
212.736
212.15
212.86
210.419
279.411
212.185
241.588
212.236
213.906
209.823
230.871
220.608
221.223
211.903
207.996
220.86
216.246
212.469
210.416
212.785
243.294
211.154
211.573
212.16
219.936
229.109
231.801
252.888
211.013
227.072
238.234
220.407
211.467
217.228
210.579
275.806
211.203
228.78
237.958
215.023
232.941
213.438
235.631
235.093
222.858
240.092
212.572
269.616
217.736
235.524
238.333
275.27
211.031
245.526
254.585
223.816
220.939
219.721
249.385
234.141
243.794
211.023
239.2
213.794
227.806
235.765
210.171
216.772
232.807
238.959
211.334
237.889
212.483
230.071
227.931
211.992
240.355
249.161
210.041
229.622
208.976
213.342
209.224
222.425
236.215
212.311
252.554
274.125
252.942
224.336
209.849
213.48
214.836
221.681
213.892
225.053
223.851
234.512
223.272
225.133
214.554
272.5
245.235
210.55
229.415
212.224
216.906
211.932
245.608
223.689
211.374
213.284
232.827
235.578
240.157
239.064
212.826
238.41
211.833
211.36
230.771
238.519
244.954
246.732
210.929
223.773
249.995
210.983
217.459
211.09
209.977
242.383
213.128
214.414
237.719
213.761
241.223
246.333
228.208
211.466
231.52
213.474
210.436
210.714
235.712
260.838
213.645
231.237
211.375
213.161
219.121
245.77
230.685
212.64
225.739
243.029
239.444
213.255
211.506
248.158
215.428
231.558
220.682
235.245
225.658
212.765
219.191
242.167
210.622
239.177
219.881
248.058
225.35
245.869
256.674
236.773
212.277
233.126
232.468
213.421
237.367
209.928
211.265
213.128
211.178
221.888
211.553
211.709
239.85
225.215
252.378
212.197
226.406
232.443
243.977
218.613
235.71
211.142
212.731
210.965
212.283
223.086
210.454
240.354
213.127
211.958
213.881
210.101
246.736
242.049
227.816
246.954
221.731
280.174
212.473
213.311
213.044
247.89
223.168
215.321
272.39
239.347
211.466
234.414
211
226.156
233.499
211.854
264.274
229.279
237.891
214.657
216
212.428
212.897
211.779
232.432
228.226
211.178
212.755
220.095
211.406
219.583
236.563
211.076
216.31
233.524
212.159
212.878
229.657
211.311
237.322
257.118
227.124
226.785
221.82
213.737
213.335
262.233
227.251
221.891
212.671
233.966
212.113
223.147
214.736
211.374
240.617
230.234
240.6
210.337
209.699
213.621
211.214
210.717
245.293
227.644
259.715
234.759
247.327
274.009
228.175
225.934
212.774
232.646
239.324
224.732
221.046
224.848
229.928
227.715
211.419
211.614
232.68
211.634
236.016
236.071
211.986
210.366
213.61
209.783
211.489
211.109
210.082
211.588
253.2
211.201
228.095
259.735
211.724
213.543
234.362
250.929
211.358
219.401
211.637
239.258
216.579
231.716
227.237
242.412
221.842
224.078
233.209
210.498
237.998
219.012
211.541
253.705
211.015
212.513
211.426
249.77
252.647
210.862
232.112
211.576
229.43
244.134
211.123
231.962
212.773
210.909
230.192
210.687
212.504
209.284
236.172
231.75
245.305
211.002
210.891
239.548
214.556
222.893
212.178
224.945
249.332
231.025
211.078
269.81
211.105
231.173
236.269
250.741
237.138
246.942
239.908
213.764
230.964
230.32
212.347
212.429
228.6
213.546
210.823
216.3
210.443
241.632
247.74
239.408
211.346
218.205
246.841
231.555
231.04
226.071
226.441
238.925
245.664
245.826
219.988
240.203
235.041
224.187
211.476
211.217
240.186
212.279
258.212
249.208
208.992
229.83
244.589
211.673
234.101
211.566
213.008
224.934
242.959
233.418
213.854
211.56
222.697
227.821
245.679
229.598
219.089
229.896
225.713
257.248
274.997
226.826
211.069
247.129
214.356
212.319
213.32
221.468
216.674
220.937
215.42
208.978
229.708
211.77
231.571
211.86
214.088
246.481
239.632
260.388
270.632
237.696
269.017
209.974
243.398
235.907
249.113
235.369
211.97
227.859
227.207
210.871
229.214
210.679
218.293
212.816
275.788
246.175
211.431
227.229
218.007
213.105
251.525
211.189
247.036
227.007
228.713
213.793
231.918
269.872
225.728
211.708
210.799
231.329
238.746
237.825
216.338
211.276
215.441
212.346
220.202
228.171
227.531
232.087
212.26
210.051
225.507
213.119
242.421
237.35
211.47
267.87
210.946
211.827
211.206
209.176
241.868
233.908
225.612
213.442
209.548
238.454
213.336
219.047
275.889
216.772
212.158
247.372
212.624
234.297
210.861
211.021
251.783
246.686
212.385
211.947
244.448
236.13
210.678
232.639
238.721
233.11
218.163
215.255
211.713
217.443
211.386
217.675
212.753
236.07
212.019
212.231
212.227
218.737
212.373
218.036
210.845
237.375
239.437
210.298
211.422
212.212
216.896
211.468
222.296
220.917
211.112
218.683
218.946
227.304
213.687
213.076
249.98
229.728
212.657
271.312
211.077
243.962
213.688
249.212
227.019
238.58
213.585
258.434
211.567
214.402
222.178
233.947
241.02
210.925
227.788
221.282
211.556
213.271
237.361
231.311
246.201
236.134
211.399
238.349
211.303
211.336
220.618
231.483
208.032
228.204
263.207
246.298
211.939
211.231
210.178
212.189
260.997
210.779
236.324
211.63
234.717
258.822
223.465
211.05
239.299
214.327
211.602
212.762
224.197
213.334
211.729
211.816
218.267
228.21
233.098
210.287
213.083
212.069
252.537
239.681
210.228
232.464
229.221
211.546
212.265
235.301
213.093
213.615
214.342
212.167
239.019
223.072
234.887
239.94
212.492
233.238
211.452
221.382
231.535
243.263
224.433
212.128
211.369
212.366
243.051
266.278
220.228
233.896
213.521
220.813
220.416
211.822
224.572
210.688
213.697
215.277
237.626
211.675
228.125
212.972
235.979
261.552
213.538
208.323
237.936
245.195
229.403
255.403
245.692
236.735
245.538
258.381
239.79
225.929
241.725
211.016
212.823
236.715
236.088
235.278
262.372
279.095
235.01
227.566
244.801
211.773
213.463
222.523
250.971
232.018
211.53
215.207
209.899
243.755
212.215
230.76
286.906
211.453
235.774
219.5
213.696
209.808
266.16
237.182
263.457
209.051
216.115
227.835
233.173
216.241
250.42
233.473
214.671
232.392
211.816
226.992
231.864
263.403
211.489
269.42
245.072
211.857
238.095
244.781
211.193
209.856
225.968
211.236
246.058
213.441
246.697
212.89
245.95
273.021
233.764
247.253
210.627
214.612
283.842
249.075
211.434
211.243
239.625
212.786
231.777
211.484
237.295
229.524
231.5
216.473
238.905
219.403
256.08
210.938
211.876
212.777
211.473
235.028
212.486
213.428
210.382
225.7
228.723
253.972
218.518
224.011
247.544
212.957
216.666
210.732
236.397
218.36
212.953
234.702
225.9
210.993
227.408
211.195
229.313
214.326
219.804
211.426
222.165
220.779
210.542
212.512
234.794
221.962
232.825
222.294
266.121
229.111
223.314
212.812
232.726
212.906
236.645
227.693
221.496
219.153
226.671
215.612
249.034
226.963
238.093
223.516
244.504
211.636
211.456
209.72
210.27
244.736
211.03
239.195
243.831
222.604
211.304
219.693
232.661
211.314
211.055
209.891
236.376
223.629
232.018
212.686
215.164
211.531
229.925
227.836
251.011
211.72
239.098
229.38
208.997
239.279
221.248
236.466
231.181
213.551
243.798
236.224
223.605
213.33
209.587
221.616
232.099
213.98
220.567
214.752
213.186
239.417
213.004
230.144
228.506
270.355
232.958
212.12
232.887
243.7
235.614
213.413
212.873
224.918
274.626
211.494
211.046
226.317
239.479
216.209
237.588
219.101
230.548
215.117
231.648
229.013
265.848
212.133
224.61
228.835
210.666
213.272
279.246
237.285
211.109
213.718
213.044
211.051
266.731
247.396
212.035
214.512
212.149
219.29
214.351
211.933
213.09
268.07
222.005
240.107
212.982
212.011
252.323
212.999
213.164
211.86
212.969
212.281
241.562
242.698
214.225
227.651
210.192
211.642
210.704
246.75
215.455
213.176
211.748
228.278
249.378
211.668
221.727
223.195
212.13
212.916
239.02
231.271
224.7
262.832
225.658
227.528
210.417
229.629
237.105
261.113
209.935
212.228
261.456
210.744
231.405
223.549
209.895
210.365
211.773
274.608
217.592
240.641
213.23
225.856
232.012
225.611
252.537
271.432
214.31
213.323
214.264
212.305
240.001
230.008
220.409
245.024
210.33
228.795
211.247
229.82
226.199
227.848
226.274
211.854
211.211
237.638
216.292
210.914
213.146
216.793
212.698
230.16
209.17
232.322
212.542
223.542
228.019
227.272
216.064
216.928
242.534
250.763
231.112
211.635
256.01
211.963
236.112
213.023
233.152
218.543
231.991
209.493
213.532
212.491
215.382
218.308
229.245
212.362
210.154
227.913
219.656
230.234
214.728
210.564
213.333
223.714
225.76
256.531
210.87
217.311
227.095
224.457
230.171
237.768
217.274
264.486
229.281
231.79
211.664
233.488
230.438
242.401
219.152
247.71
236.528
211.609
217.953
234.93
229.274
243.728
210.751
237.374
223.778
210.979
238.68
211.727
241.932
243.908
265.791
213.662
210.651
210.411
235.019
211.419
225.631
210.619
211.909
213.913
213.388
267.653
235.292
212.361
210.055
211.649
223.494
246.558
232.301
210.853
210.722
215.09
223.824
220.625
233.369
213.97
210.734
210.331
238.894
211.864
225.093
222.725
226.834
212.897
211.271
242.506
282.362
212.009
213.619
250.524
212.102
252.093
212.131
257.013
245.666
210.703
220.21
244.995
246.636
215.981
227.75
213.364
228.424
245.748
226.221
213.4
210.966
220.937
209.686
248.065
236.755
212.129
248.264
234.805
209.585
212.037
211.602
213.905
214.106
232.422
212.923
242.991
225.583
230.198
212.599
220.933
209.434
219.133
211.259
279.13
226.051
212.571
215.928
210.794
275.442
255.908
211.489
211.309
236.506
222.939
238.61
211.618
211.65
224.117
225.814
230.09
236.84
212.202
212.881
213.452
240.285
218.948
269.541
214.005
252.696
227.756
224.378
222.048
240.019
217.381
240.889
212.122
224.343
226.534
211.007
216.112
226.939
258.434
230.444
248.132
235.95
224.878
210.963
213.701
252.497
251.715
221.311
230.743
209.267
218.914
233.393
212.043
242.243
227.49
234.216
225.115
210.573
232.567
257.182
256.188
211.828
222.561
212.02
210.318
223.87
214.216
243.492
228.255
211.955
267.982
241.173
214.82
249.729
213.7
234.034
225.781
212.826
251.911
235.576
211.499
213.664
226.693
209.626
230.904
245.6
209.879
240.508
209.833
252.089
213.274
213.046
253.521
241.239
211.255
229.444
239.841
211.921
266.072
243.896
211.372
233.514
211.972
210.399
216.994
228.488
208.897
225.354
211.875
227.003
237.327
227.312
257.054
233.842
237.822
219.116
250.21
238.127
212.385
233.341
233.736
217.178
246.745
222.438
223.418
247.048
226.484
221.308
212.281
244.415
239.778
233.402
231.872
229.709
213.514
209.317
211.732
211.191
216.93
228.915
236.583
213.41
213.592
213.256
221.301
234.031
218.943
229.583
211.547
227.481
226.391
217.644
211.048
224.605
224.506
223.891
231.559
230.411
228.737
212.216
211.908
227.127
227.917
210.451
286.483
229.744
211.866
220.397
288.503
235.643
230.93
210.431
227.611
227.779
241.951
264.853
230.505
213.308
210.998
284.156
209.862
211.208
214.662
243.741
239.828
239.441
225.66
228.338
211.192
223.098
227.455
216.721
256.781
235.932
229.776
257.402
220.692
212.857
214.584
218
215.379
252.495
235.118
219.751
231.393
240
258.725
213.377
214.555
221.495
210.9
211.486
237.782
215.222
231.354
210.613
211.758
229.064
211.805
208.7
224.399
240.369
241.226
237.143
228.298
277.214
210.328
217.002
214.497
238.192
209.994
251.927
238.954
240.398
237.26
229.501
217.394
214.464
222.855
230.305
214.694
214.577
230.901
211.923
212.375
241.86
254.66
233.467
212.818
213.239
213.466
238.887
246.245
234.915
218.455
233.037
216.661
230.322
209.823
212.014
223.146
211.516
224.22
231.45
209.938
213.683
210.795
222.937
213.543
219.514
212.138
223.031
267.329
208.543
212.074
241.493
212.058
211.499
246.972
232.58
269.449
242.151
211.358
248.082
211.116
239.957
227.712
227.192
218.314
210.939
234.944
217.716
262.952
211.75
212.004
257.823
231.061
219.383
210.488
212.933
209.651
212.206
240.859
238.524
224.618
247.032
229.478
211.788
211.351
236.973
239.905
211.447
263.214
220.58
212.695
238.734
212.318
210.823
241.385
230.876
291.576
217.02
239.187
222.209
217.362
232.777
237.322
239.745
284.897
231.608
244.955
212.558
213.398
231.611
228.484
247.579
234.8
237.719
215.502
212.462
220.8
222.291
225.681
212.705
242.202
210.589
211.089
218.843
212.145
231.918
211.976
222.549
221.259
212.715
212.272
212.036
232.12
210.852
211.025
218.617
226.738
246.097
210.225
235.301
251.646
215.153
212.447
212.826
223.95
254.677
226.795
211.935
253.794
216.659
251.862
217.995
240.128
225.16
231.001
234.832
236.372
211.12
210.832
227.112
211.308
211.796
211.189
215.883
227.149
246.289
233.633
230.198
223.225
212.061
252.165
214.684
226.251
213.353
239.517
211.283
230.011
219.982
210.884
221.594
211.811
241.78
211.065
213.51
220.907
241.52
211.834
261.841
213.715
228.343
211.323
212.115
238.918
246.783
225.752
225.772
224.768
218.886
214.089
209.609
227.818
244.871
245.288
227.065
240.684
235.333
245.011
238.865
218.279
276.772
224.959
257.12
234.963
210.219
236.922
229.251
214.572
211.237
219.146
230.18
229.945
225.163
219.289
239.542
252.275
240.948
211.303
218.459
229.354
248.746
208.469
231.395
218.662
239.257
265.588
229.934
223.37
212.035
210.578
232.949
213.088
240.101
235.551
248.715
210.596
233.389
212.817
210.529
242.671
241.507
225.978
239.926
212.608
244.619
226.137
233.016
211.32
217.932
213.767
225.206
226.754
213.275
231.125
213.708
225.095
214.584
213.575
227.126
209.666
263.983
210.791
234.121
272.783
234.671
238.803
266.232
214.942
224.915
212.044
239.394
223.212
224.747
213.488
210.069
227.39
236.472
241.615
247.104
231.769
225.966
213.237
213.192
274.922
209.652
224.582
250.565
210.992
211.548
239.26
226.642
249.363
241.138
224.681
212.051
235.517
219.066
235.867
230.93
232.616
213.332
229.403
211.812
210.446
213.97
222.048
234.257
214.278
212.199
212.809
252.054
212.608
269.841
230.467
230.44
212.304
236.051
233.101
226.368
269.881
216.76
216.859
240.549
211.395
225.555
226.619
234.727
213.269
215.298
213.88
238.295
217.39
215.488
211.602
213.788
257.013
213.873
247.233
215.378
249.071
210.394
224.988
243.874
220.162
283.137
238.603
233.212
209.827
215.797
266.211
239.049
213.994
227.417
211.219
224.958
213.122
231.13
212.98
215.634
243.898
239.12
211.804
209.874
210.153
211.641
229.544
211.937
218.859
231.454
211.46
215.783
218.237
269.167
211.287
211.134
220.62
244.18
234.89
232.083
237.962
210.379
245.439
216.384
228.743
211.209
211.273
251.057
211.469
212.142
241.951
225.402
228.936
235.344
222.984
209.81
215.662
211.012
228.106
210.902
210.467
255.062
237.291
227.182
264.007
225.932
239.502
211.699
211.029
212.872
210.428
212.555
234.071
232.537
239.693
210.501
213.843
214.915
214.824
227.13
211.69
211.43
214.91
211.082
226.898
242.096
221.342
211.038
237.716
210.112
236.323
231.647
211.048
211.097
237.343
215.226
224.83
211.892
235.942
255.454
220.456
240.482
224.031
226.018
242.327
210.237
242.019
239.76
207.931
247.975
261.903
232.32
245.681
212.198
241.831
213.853
212.622
212.295
220.62
256.969
220.613
212.321
253.741
249.936
218.475
242.859
213.515
284.064
211.157
224.064
217.009
245.688
246.224
224.21
210.966
226.979
234.258
209.449
215.126
211.984
231.245
218.699
231.092
235.299
231.916
228.228
274.508
231.562
209.249
211.198
219.404
240.57
210.914
235.401
227.772
252.571
240.833
213.513
232.465
212.173
212.719
231.065
264.04
222.85
219.5
239.693
241.097
218.335
213.015
238.287
252.714
218.352
232.859
212.425
212.825
215.609
243.163
211.343
231.124
210.214
276.455
245.535
213.465
231.786
271.621
222.968
212.996
211.098
208.885
213.243
229.539
230.02
232.802
212.368
231.174
230.3
236.399
241.724
218.852
211.836
251.136
210.961
230.689
240.377
213.593
235.186
238.011
211.777
210.008
278.482
237.21
211.796
213.152
222.183
219.392
220.112
243.296
229.264
210.868
210.901
241.467
245.331
210.217
218.923
210.702
211.661
210.114
211.588
240.804
233.047
216.43
253.527
217.057
242.401
248.192
212.385
246.749
213.659
249.519
226.873
258.746
241.193
210.342
224.866
244.491
212.693
231.102
210.686
232.895
228.692
211.575
216.619
213.087
237.416
211.736
239.753
255.653
236.487
213.577
224.95
222.68
259.852
213.706
216.549
216.313
255.807
212.025
230.619
238.394
223.976
210.215
211.355
215.512
232.314
284.813
213.776
237.689
211.267
233.56
239.569
247.027
212.244
225.078
212.103
230.671
239.772
235.266
212.988
250.817
226.582
218.113
220.313
223.177
211.811
212.399
213.243
211.144
238.767
235.565
210.978
220.798
248.167
221.931
210.865
231.932
213.436
241.654
213.525
225.772
288.182
230.026
211.116
243.13
236.34
211.527
251.541
259.69
210.99
212.077
213.972
222.644
213.358
239.938
255.604
213.539
232.006
240.652
213.739
223.417
215.975
245.601
227.89
227.928
230.585
217.448
213.452
222.606
211.357
232.169
244.263
230.991
213.398
232.389
212.713
235.929
222.152
212.491
239.527
213.667
211.601
232.461
236.878
211.307
230.739
226.055
211.413
251.322
222.527
217.094
247.965
213.668
230.049
213.675
212.864
227.002
210.523
211.024
210.466
244.222
210.747
214.19
211.974
212.335
238.679
241.531
212.577
213.529
212.11
224.47
230.755
228.054
217.91
225.528
212.312
210.841
212.071
224.528
210.971
227.162
221.212
234.984
212.646
213.124
241.545
212.244
212.671
237.715
211.071
209.796
225.193
235.28
239.11
216.785
253.438
210.772
226.951
212.026
212.147
217.088
213.286
212.555
211.537
217.676
239.201
210.484
221.272
213.699
238.309
213.969
225.481
211.409
223.29
210.716
227.838
237.335
231.01
216.484
228.363
230.128
247.441
232.159
215.818
223.621
230.414
209.536
216.122
262.079
236.551
212.648
211.316
216.209
217.689
216.456
225.364
238.097
225.869
237.149
217.726
258.36
212.374
210.941
247.548
225.513
212.606
209.899
244.043
224.794
210.523
227.053