# vtk DataFile Version 3.0
vtk output
ASCII
DATASET POLYDATA
POINTS 10000 float
-14.6652 -27.7256 6.19972
-2.74861 -40.8233 13.1832
-2.69868 -44.4319 11.3691
4.09195 -48.0105 15.0466
-0.498944 -43.1649 12.5304
3.75427 -47.5609 14.6528
-14.022 -31.1541 8.45154
-0.348405 -45.9635 11.201
-0.762273 -46.6039 11.0905
-12.4509 -31.5698 8.04897
-14.1907 -25.5109 2.45098
-13.0486 -32.372 8.60032
-0.496523 -45.1662 14.4505
-2.08665 -43.1139 12.6852
5.51069 -49.1749 12.557
-1.19441 -44.649 11.6041
-13.242 -29.4002 7.19478
-2.77139 -39.8768 13.701
0.274448 -44.3607 12.3937
-3.08487 -42.5225 12.6018
-6.62198 -43.0399 6.24726
-0.110879 -44.7469 14.449
-2.40604 -41.064 13.2956
16.6681 -52.2125 8.07611
-14.4655 -28.4667 7.23027
-15.2294 -28.6398 5.49544
-15.285 -27.0329 5.35061
1.80205 -46.911 15.05
-13.934 -27.1278 7.06417
-1.35358 -40.8053 13.0497
-12.5049 -34.3664 5.2238
1.71061 -46.117 11.7915
-14.0762 -27.6529 6.58683
-14.5817 -28.9012 7.04956
-2.32515 -45.8805 10.5331
-2.18868 -43.7067 11.9817
-13.5422 -28.751 7.69067
3.80225 -43.8105 13.2604
-0.313541 -45.4973 11.9933
-1.08604 -45.6477 13.0654
16.1126 -52.0463 7.98364
-15.0215 -27.9629 6.12452
-0.109545 -43.7193 12.0212
13.9326 -51.8082 12.0124
-8.89656 -41.3231 9.76014
-4.38809 -43.8098 11.1007
-8.26356 -41.8068 10.3581
-12.8827 -34.065 8.93526
1.58555 -45.6512 11.5938
-15.5581 -25.5073 4.23934
1.69694 -46.2086 11.9743
-13.9739 -32.1416 8.48848
-13.3565 -32.9218 8.60289
-13.7394 -28.4056 6.92689
-0.099025 -44.9042 13.1123
5.74014 -50.1182 8.94838
-2.78212 -42.535 13.927
-15.277 -26.0419 1.55346
-14.8029 -28.6576 7.58093
-7.63123 -41.5953 10.5209
-13.6694 -28.7708 7.72642
-13.0585 -31.4313 8.48803
-14.1219 -27.7219 4.95677
-11.1249 -38.1578 10.1925
-11.6096 -37.5521 8.78104
-15.3477 -27.4959 6.18488
3.60651 -47.9627 15.4207
-9.05381 -41.0494 9.82465
-2.25467 -44.5328 18.2468
6.87651 -49.2025 14.8753
-5.57418 -40.3999 13.2329
-8.49215 -41.3484 7.18643
-1.16899 -40.2788 13.2862
-14.7581 -29.7861 7.1089
1.83925 -46.6782 14.8416
-14.4655 -24.0785 2.59825
-2.73881 -43.5356 12.0765
-7.55752 -41.5316 6.46519
0.0632843 -45.4142 11.5168
6.50288 -50.5676 5.80795
-14.334 -24.0884 2.79725
9.66166 -50.7459 6.23172
-15.0262 -28.498 7.57025
0.852587 -46.189 11.738
2.1273 -46.6675 11.3484
-1.12836 -44.2076 13.8815
-13.5339 -30.1512 8.13579
-12.4654 -34.9966 9.01356
-5.77027 -44.017 6.81291
-0.746158 -45.4827 14.3551
12.0118 -50.4202 6.90367
-14.1082 -28.9316 7.34039
9.80757 -47.2501 12.0057
-7.475 -42.1192 19.3189
-14.4957 -28.2903 7.11198
-11.9105 -31.5964 8.65292
-14.7851 -29.3153 5.7242
-10.0598 -38.4127 5.92393
6.35719 -47.0306 11.5492
-15.4092 -22.9436 3.2792
-14.5641 -26.0398 5.93531
-12.2058 -28.7408 7.11043
14.5078 -51.2113 7.82517
5.90065 -46.6422 11.8739
10.3938 -50.8176 8.0701
-7.81024 -42.4264 7.32354
0.491342 -45.3306 13.2428
1.10913 -44.639 11.8804
4.85777 -47.7758 11.2102
-0.50007 -45.0643 12.7952
-12.7689 -33.3899 9.00781
3.6086 -45.8651 12.3306
0.63941 -42.5059 12.6892
-0.316302 -44.1954 12.1874
-11.2836 -35.7817 9.90583
0.00471705 -46.3938 10.7785
-14.3886 -30.344 5.85554
-13.0663 -27.6811 7.1426
-14.3495 -29.2322 7.14401
-13.0738 -30.2767 7.45558
0.533423 -42.3385 13.0131
4.00366 -48.0771 15.9388
-4.47344 -43.7426 10.9778
-3.86943 -41.8983 12.8261
-14.6816 -28.6822 7.70136
-15.6101 -26.5452 5.43101
9.82185 -48.0563 10.9489
0.0996967 -45.9061 13.6019
-14.8698 -26.8104 6.82472
-11.9695 -33.0039 8.48256
-13.1299 -33.821 8.57422
12.0586 -50.464 6.45946
-13.1957 -28.8621 7.33736
-0.0314662 -46.553 12.4069
-12.5976 -33.3332 8.44779
-13.7192 -31.7384 6.60692
-14.4184 -29.369 7.98744
-1.49521 -44.4351 11.9326
1.07676 -45.7026 11.6057
-13.9634 -26.6789 6.78776
-10.0158 -38.6578 10.3561
7.53173 -49.813 6.16709
-1.46959 -42.5886 13.0555
4.24559 -47.7659 16.6503
-12.6258 -31.7824 8.79836
0.714458 -45.1583 14.8219
-13.1441 -30.8839 7.0841
-16.5662 -22.6886 3.16849
-14.2862 -27.8204 5.49165
-12.9222 -23.7922 4.91411
4.57469 -48.0477 12.2586
-11.9053 -35.3133 5.83913
2.26164 -49.0485 5.95464
2.70738 -46.8036 15.7609
-4.23239 -40.4443 12.1564
-12.8456 -32.9131 8.79888
-14.2786 -31.1902 5.00829
-13.7856 -31.2856 8.22161
-13.6619 -30.5426 8.43714
-0.692571 -45.4214 11.7605
-13.3988 -29.2162 7.37722
4.39674 -45.9265 12.5273
7.32297 -50.4418 6.39984
5.29276 -46.3392 12.2616
-2.52396 -43.0444 13.3889
-1.89735 -42.8639 14.966
-14.9045 -25.2157 5.3698
-14.5691 -21.6613 3.71737
14.0775 -50.9303 11.371
13.8534 -52.0442 7.98607
-11.4731 -35.9383 9.81214
-14.1847 -27.7297 6.87893
1.45286 -46.7286 15.1182
4.44955 -47.7538 16.7859
-12.1515 -35.463 9.5842
-5.66867 -40.5452 11.6735
-15.6818 -25.7689 4.66303
-12.689 -30.1782 7.89627
-12.9346 -29.5007 7.77655
-13.6629 -26.5016 6.49667
-13.3295 -32.5285 8.78243
-12.6864 -30.6333 8.29948
-12.8547 -28.1872 6.39921
-11.2861 -29.7894 8.45253
-13.8043 -31.3062 8.73482
-3.09701 -41.6024 12.3368
-13.4261 -33.4641 8.98142
6.39222 -47.4498 11.9112
-0.711147 -43.7521 12.8446
-13.9138 -31.6592 8.64662
-11.8075 -32.449 9.05572
-3.6393 -44.4943 10.7423
-8.93642 -41.0608 9.82121
0.822129 -45.4529 12.252
3.01597 -47.3346 15.7074
-12.2576 -35.2764 9.11229
10.9106 -54.9437 7.89277
-5.19269 -39.0302 13.2246
2.35645 -44.8656 12.1798
-11.9725 -31.9298 8.93067
-14.7108 -24.8093 5.53126
-2.41162 -42.7854 12.5958
-15.6127 -24.5881 4.301
-16.3082 -22.4131 3.19682
1.14199 -46.506 11.1404
-4.79107 -44.8616 10.4832
-14.1992 -26.459 5.67791
-14.6994 -27.4852 6.02676
-11.8702 -30.4736 8.45139
6.71577 -49.1301 16.2105
2.43474 -48.4524 6.62725
-15.8583 -24.334 3.9295
-13.2526 -27.2688 7.31379
-13.886 -27.4437 6.99483
-15.0463 -28.6993 7.22352
13.3279 -51.3932 8.44566
-11.5079 -31.9662 8.62875
-10.641 -38.2172 10.3892
-4.91223 -42.8841 11.4639
-13.5158 -31.8993 6.08797
-3.03362 -44.7974 11.655
-0.516505 -46.4619 11.6488
-11.8345 -36.2776 6.87076
-9.58883 -39.5918 10.4609
0.856616 -46.2234 11.002
-14.6381 -28.3905 6.74543
-15.602 -26.2114 5.33348
-14.3116 -31.2076 8.41097
-12.7425 -35.429 9.43954
-3.57687 -45.3145 10.6158
-0.478453 -44.6959 12.8496
-10.503 -39.0726 10.2647
-13.1691 -31.77 8.82851
5.94723 -50.3774 8.19037
-13.2248 -28.8576 7.24231
-15.1705 -23.1453 3.94268
-15.2731 -25.8883 6.1489
-1.14916 -42.5137 12.5884
-14.9447 -28.131 7.4482
-14.9427 -27.6936 6.38664
-10.6156 -37.9345 9.83589
-12.4372 -35.1426 9.21873
17.6907 -53.0486 10.04
1.07001 -43.3835 12.3793
-7.24361 -42.1874 10.3885
2.7466 -48.6905 5.70128
-15.1033 -28.714 6.84717
-3.49449 -45.1885 10.6908
-14.7104 -27.7037 5.5988
-14.8932 -27.8805 7.50308
16.3626 -51.3449 10.7347
-14.4439 -27.6139 5.3579
1.09342 -45.8539 11.2868
1.49288 -43.9615 11.8567
0.883214 -48.388 6.97474
2.47336 -48.639 6.46129
-13.5741 -31.0696 8.75583
-1.6074 -39.8776 13.7914
5.53817 -48.2438 15.8928
-11.0547 -24.1797 4.45554
-13.0417 -34.8625 9.10228
-8.33721 -39.7048 10.9372
6.3295 -50.2663 6.53234
4.23566 -47.6973 14.4713
-9.16773 -39.7516 10.2753
-14.8734 -28.2146 6.97102
-14.2348 -31.2447 6.29489
3.56856 -48.3678 12.0398
-14.9332 -30.2017 5.68303
-9.7043 -39.3834 6.51383
-15.1584 -26.1427 4.92757
-2.72747 -42.0481 13.5138
-12.9991 -28.2601 7.1726
-0.874363 -43.378 12.6352
-1.85876 -42.4149 13.0186
-13.9189 -29.6383 7.7183
-13.1225 -33.6408 7.59527
1.31156 -45.4026 11.4171
7.44985 -51.4388 6.46928
15.4972 -55.0001 10.2808
-6.31106 -43.5195 9.90629
-14.8846 -26.5544 5.91405
-8.20769 -40.9299 6.3888
-4.20745 -43.5428 18.6305
-13.3617 -33.431 9.14528
0.607443 -46.2786 11.4599
-0.245655 -45.5312 13.9767
0.154007 -46.6579 11.5008
21.6828 -52.7001 9.46461
-9.48861 -39.617 10.582
-7.61401 -41.8566 10.5494
-14.4491 -26.0831 6.53583
-4.27929 -43.1617 11.6591
-1.93285 -43.167 13.2148
-14.0819 -29.4529 7.83017
-14.9566 -27.463 6.79163
-13.7221 -28.3636 7.48793
7.91771 -50.2882 7.2723
-13.0266 -32.563 8.92235
-8.77413 -40.6473 9.57241
6.62149 -49.8466 6.02396
-0.828361 -42.9005 13.2236
12.6615 -52.6428 12.6626
-0.214859 -45.1555 14.7082
-2.98864 -42.0307 13.0432
-3.45807 -41.5392 13.638
2.07371 -46.6152 11.03
-5.3989 -45.1661 8.56523
4.09506 -44.5828 12.3507
-14.6161 -27.2529 5.54318
-13.1219 -33.4987 5.06288
-1.73335 -44.2386 14.0884
5.85165 -48.9141 13.2708
-5.07489 -43.194 10.8621
-10.2649 -38.8516 9.94734
-4.41535 -42.7369 11.7326
-3.56206 -43.4195 11.7263
-0.220169 -44.4399 13.1454
-15.2445 -26.6739 6.48617
-13.9014 -32.866 8.4566
-13.571 -27.1307 6.49539
-1.8545 -42.2368 13.1665
11.167 -49.0589 10.6303
10.1789 -50.3423 14.5518
-13.8251 -31.5107 8.77776
-13.7993 -28.7271 7.76546
-4.36311 -45.1394 6.57324
-12.6551 -32.2759 8.06961
20.71 -52.6576 8.53583
-3.03463 -48.1073 6.0776
3.64812 -47.1211 17.358
0.569408 -46.7306 14.5284
3.12892 -45.873 12.0174
-14.4858 -23.8638 4.23132
-12.1739 -35.9421 8.96339
7.21315 -51.0446 8.61914
-2.65578 -42.7431 12.5555
-13.2249 -28.471 7.6862
5.49638 -49.7612 7.71587
-7.68895 -41.3196 10.8526
-15.2278 -27.0069 6.24661
-14.9904 -27.67 7.0711
-1.54541 -40.9316 12.9999
-12.0547 -31.3122 7.48669
-3.37165 -42.2947 13.5378
-11.9538 -32.3387 6.93723
0.149848 -44.9739 16.2286
-0.681698 -44.8234 14.2776
-0.337158 -44.9327 12.2349
-15.0733 -27.4432 6.77846
-14.8239 -26.2475 4.0197
-14.6719 -27.8328 7.27652
7.18398 -50.1598 6.62806
-4.00458 -44.7234 10.867
-1.28299 -41.8994 12.9767
-13.5662 -32.3767 7.79485
-12.8022 -27.1199 7.20886
-13.7105 -32.6856 8.41915
-13.8507 -29.0341 7.37527
-14.7507 -29.3699 7.11083
-13.1632 -27.4737 7.17182
6.69392 -37.6119 27.1929
-11.4797 -37.5432 8.24971
6.98812 -49.2349 15.7728
-15.3448 -26.4047 4.97309
-14.5652 -25.8466 4.05068
5.37464 -48.1221 15.9117
-2.70157 -44.9838 11.0968
23.3948 -53.601 9.6712
-5.23326 -39.783 13.5541
-7.52664 -42.506 9.77714
3.4201 -46.9603 11.8063
-15.8384 -26.9551 5.17657
-1.53373 -42.5904 12.7532
19.4378 -52.5547 9.35348
0.942947 -46.7541 17.1852
-13.4224 -28.7757 6.9341
-1.97351 -43.5355 13.3948
3.81606 -47.8286 15.4877
2.5797 -43.7621 12.6655
2.35487 -46.6152 11.9958
21.061 -52.1548 8.9851
-2.28768 -43.3657 14.9907
-15.4144 -25.7318 5.69535
-3.96559 -43.6379 18.1587
-3.17013 -41.7968 13.7909
-1.60353 -40.8662 13.0643
-14.035 -28.59 8.00138
[...]
POINT_DATA 10000
SCALARS t float 1
LOOKUP_TABLE default
243.115
212.495
211.348
212.219
210.661
212.741
226.056
211.043
211.248
229.199
272.338
225.696
213.621
211.86
213.816
210.91
234.952
213.794
210.683
212.168
240.009
213.576
212.598
224.24
234.686
249.4
250.795
212.886
236.493
211.724
250.652
210.374
239.806
236.03
211.93
211.306
231.382
211.363
211.284
213.102
224.852
243.857
209.774
214.991
217.566
211.619
215.295
223.552
210.015
260.821
210.801
225.719
225.501
236.972
212.272
219.567
213.539
277.201
232.03
214.103
231.122
226.273
254.022
216.796
223.495
243.505
211.897
217.316
211.87
212.016
213.878
233.67
212.343
235.509
213.165
272.23
211.714
239.298
210.679
240.729
271.279
238.574
232.126
210.819
210.734
213.247
228.388
222.856
235.724
213.607
234.357
233.805
208.899
212.076
235.622
225.142
247.281
244.377
209.902
269.365
245.676
236.075
226.733
209.572
225.203
232.126
212.579
209.532
211.359
212.025
223.388
210.466
210.305
210.576
217.919
210.998
246.06
235.796
235.255
233.113
211.16
211.26
211.523
212.732
231.173
250.275
210.789
213.358
238.52
226.459
225.527
237.605
233.932
212.776
226.695
239.759
229.186
211.259
210.299
238.883
215.709
239.345
211.944
210.65
224.562
213.511
236.064
270.627
249.236
256.568
212.714
245.902
239.783
211.791
211.155
224.612
253.056
227.679
226.436
211.165
233.546
210.607
236.634
210.135
212.921
213.967
250.812
267.337
215.162
224.611
218.468
237.479
212.918
210.533
219.93
211.049
257.126
230.018
230.785
241.16
224.58
227.379
241.499
226.42
224.732
211.242
223.181
210.623
211.575
225.03
222.749
211.508
217.271
210.944
211.744
222.216
222.657
213.764
209.808
223.542
250.051
211.797
260.507
270.523
210.83
213.102
247.553
244.62
226.309
210.67
236.684
263.898
234.96
236.779
234.712
222.492
225.259
216.107
211.792
244.059
211.913
211.764
237.515
215.403
210.791
238.525
251.153
226.074
220.49
212.105
211.889
216.418
224.422
223.786
234.621
264.297
244.401
210.854
233.237
241.632
217.682
221.635
215.631
209.716
214.372
242.448
237.745
211.809
248.369
232.989
216.089
250.463
210.557
208.608
233.665
237.411
224.82
213.713
211.059
260.523
222.095
213
235.376
212.721
215.447
236.78
242.263
213.114
247.66
239.266
254.445
213.078
235.34
211.138
212.007
231
232.195
210.087
235.196
212.832
215.585
245.716
239.937
211.981
222.356
210.969
213.476
211.487
219.972
215.032
214.193
241.229
211.769
212.507
230.265
238.411
232.901
230.65
223.887
218.367
239.947
212.124
214.045
213.697
212.503
213.522
210.719
223.073
209.498
248.816
252.147
213.449
213.158
211.587
217.043
211.671
211.631
212.203
241.212
225.784
240.709
212.235
213.337
212.1
224.456
230.892
237.796
229.206
223.03
237.782
210.505
213.434
210.027
261.222
222.866
220.576
211.896
231.568
227.889
213.177
242.972
236.173
211.653
233.318
213.354
237.932
212.339
213.541
211.164
238.544
262.333
234.595
235.208
211.534
211.581
230.671
235.968
226.283
233.545
235.514
235.734
212.639
227.06
211.101
254.146
262.208
211.043
211.251
218.63
214.322
216.854
210.808
252.687
211.397
219.086
211.12
236.917
212.797
211.777
210.259
211.028
222.199
213.958
248.092
212.184
213.586
211.832
229.568
217.619
226.261
211.774
211.813
214.335
232.035
213.994
210.886
213.584
235.114
209.946
209.47
211.412
237.193
244.596
231.981
251.588
210.553
247.186
242.485
220.259
211.319
214.151
210.902
247.522
212.986
220.643
230.35
229.374
228.192
212.895
225.492
239.41
222.754
235.751
213.069
246.859
236.269
226.251
238.146
258.491
213.109
230.89
235.496
222.086
226.86
214.051
220.956
232.185
247.642
209.44
236.291
213.519
221.739
232.415
224.327
211.378
225.258
234.025
210.649
226.84
220.396
228.922
227.748
211.511
237.21
254.464
210.871
217.105
211.059
213.376
212.2
270.045
248.167
211.23
234.495
245.484
246.163
218.964
210.405
213.408
213.776
244.171
214.035
233.064
236.292
228.681
239.928
216.244
212.683
231.231
269.933
212.269
228.804
212.924
225.004
210.805
262.099
231.212
218.326
212.851
239.784
274.093
225.592
235.251
211.496
240.222
213.369
212.893
245.008
228.557
239.813
232.942
210.912
224.75
235.548
211.242
219.827
209.809
210.417
227.497
213.628
211.124
246.978
211.961
225.327
248.6
231.861
223.403
214.926
213.696
211.678
210.656
216.869
245.084
213.509
254.398
209.85
211.215
210.707
253.455
216.88
213.452
230.438
237.772
237.385
212.609
212.558
230.173
215.786
227.452
220.659
251.657
232.358
212.457
240.706
227.912
210.996
231.388
228.293
224.589
225.033
244.407
224.238
247.723
212.131
240.209
242.379
213.34
240.07
210.04
210.242
212.461
210.387
224.518
211.272
210.118
246.284
215.691
237.376
212.18
213.16
237.631
217.741
227.995
224.638
208.889
212.208
211.308
224.164
225.244
210.504
251.412
214.686
213.388
217.421
210.875
218.141
240.787
227.449
233.034
216.21
230.602
213.111
232.965
212.852
236.187
228.097
224.83
262.86
246.69
210.898
231.669
210.786
232.164
230.384
225.602
238.566
218.484
241.602
211.276
222.625
211.573
213.584
210.53
224.811
218.963
210
212.884
245.035
211.007
233.292
239.037
211.432
218.548
231.956
210.77
210.871
226.391
211.398
250.467
228.473
241.461
228.503
217.415
211.307
213.34
268.425
220.886
256.167
213.511
229.345
210.725
219.554
221.218
211.592
232.119
229.173
237.635
212.03
211.313
212.868
210.803
208.929
248.931
231.996
259.723
228.347
232.756
251.531
233.133
220.673
213.127
228.296
244.592
225.286
217.278
222.74
291.697
215.595
211.301
212.222
246.139
209.732
222.889
238.519
211.949
209.651
213.706
210.809
210.96
211.074
210.48
212.729
279.378
209.792
233.825
226.392
210.296
213.245
237.155
272.605
212.217
219.618
211.658
235.74
211.052
236.391
229.163
230.966
237.511
230.848
220.077
211.113
230.717
212.603
209.627
230.86
211.654
212.066
210.668
229.502
222.115
211.542
222.732
211.208
258.101
233.277
211.583
211.88
213.353
213.964
240.07
212.105
212.101
210.09
230.988
239.267
228.242
211.698
210.208
241.602
222.571
227.442
212.57
240.64
257.808
227.787
211.741
269.496
211.73
223.933
286.232
257.186
231.521
247.194
229.272
211.882
232.912
227.714
211.388
212.37
211.655
213.483
211.083
231.915
209.843
250.431
224.729
239.278
218.401
234.97
270.001
254.028
249.953
215.395
250.552
248.325
231.901
224.881
234.492
235.182
237.707
212.286
210.2
210.327
235.408
211.14
240.224
246.564
215.253
233.009
252.476
224.46
231.734
217.874
229.173
228.096
252.507
231.173
222.434
212.958
211.258
231.567
227.167
218.323
222.105
230.768
215.249
241.136
269.38
217.03
211.146
251.171
219.433
212.159
212.543
224.175
225.609
218.972
216.717
218.093
233.86
213.141
243.039
212.725
213.023
244.607
238.738
256.204
221.117
247.909
252.239
211.099
250.431
242.841
235.883
245.993
213.24
240.253
228.649
211.977
252.48
211.042
222.777
212.364
245.976
232.604
217.634
233.525
213.724
211.804
239.751
229.647
220.667
231.226
227.571
214.6
232.602
233.98
216.182
210.213
210.985
220.974
251.185
230.298
211.71
210.067
211.045
213.947
227.04
221.054
238.602
250.72
211.495
210.097
230.685
213.286
230.619
233.298
214.199
251.59
225.019
211.479
210.555
211.387
234.037
217.724
211.629
212.245
210.689
242.397
213.511
258.398
242.404
224.957
216.072
219.447
212.346
231.01
213.871
214.376
234.37
239.787
212.609
225.097
285.585
231.423
210.531
233.323
220.589
228.014
225.808
211.164
211.989
239.327
220.19
239.815
212.189
224.997
210.533
212.002
210.6
234.788
209.167
226.607
210.814
236.666
279.508
211.491
211.207
216.163
223.442
210.243
226.403
258.287
211.565
221.256
226.279
218.086
213.468
210.573
229.571
247.105
213.426
266.388
211.608
233.525
213.457
236.499
217.374
270.154
213.529
237.365
211.808
215.1
233.367
231.289
218.431
211.577
227.412
229.24
211.047
217.268
232.633
227.713
250.763
240.346
218.666
270.726
211.85
210.861
246.791
233.392
209.928
238.161
232.934
248.154
214.033
211.77
210.863
212.042
253.89
210.41
254.142
211.049
224.102
258.355
212.924
210.91
230.8
213.27
211.245
212.526
235.96
213.258
211.202
211.963
224.023
215.26
225.732
210.544
212.602
212.526
227.918
236.87
211.689
233.244
229.415
221.714
210.884
217.076
212.91
213.471
216.105
211.235
229.459
216.351
228.636
243.229
210.568
220.022
209.64
234.658
261.355
241.664
253.202
211.409
210.385
210.399
233.579
224.265
229.057
214.721
213.551
230.733
228.371
211.396
228.928
210.698
212.808
218.221
262.338
210.456
218.58
216.513
252.543
265.304
213.528
210.629
239.75
245.104
218.623
244.034
246.682
256.314
234.374
265.5
228.003
224.608
263.07
212.552
209.921
241.963
232.505
246.779
241.034
244.989
219.767
216.321
258.027
211.387
210.946
224.288
237.969
229.779
210.146
216.88
211.941
242.393
209.164
222.677
234.103
210.978
244.713
238.158
213.86
210.986
250.095
237.846
240.808
208.949
221.975
228.379
227.75
216.373
253.168
231.902
211.126
228.052
209.385
212.776
240.686
245.455
227.504
269.01
269.658
212.138
253.251
243.694
211.903
210.482
228.06
210.793
251.53
213.152
268.901
212.409
245.698
253.601
233.012
245.502
212.199
228.362
241.041
227.955
220.84
210.047
246.09
211.881
244.168
211.851
232.366
228.408
241.637
211.585
264.112
211.48
247.976
211.346
208.966
213.436
211.247
231.129
212.02
214.193
211.424
235.535
240.421
227.592
229.673
217.1
238.263
212.4
213.146
210.43
243.222
223.882
213.075
223.746
219.829
212.232
224.366
211.044
235.74
212.708
210.901
210.59
221.322
224.219
210.472
209.648
267.884
254.753
226.203
220.252
237.108
248.285
246.056
213.307
236.766
211.809
219.901
216.929
269.428
227.898
259.985
219.807
237.312
227.711
243.247
249.855
227.089
212.174
210.509
210.406
212.422
238.249
211.649
242.459
265.109
223.852
210.173
228.09
252.542
211.177
212.321
210.466
243.391
210.954
241.445
212.083
229.257
213.284
229.051
225.38
263.152
211.965
230.785
271.674
210.608
232.772
237.955
231.353
229.348
214.797
232.726
239.314
218.984
213.437
210.238
226.878
236.647
213.225
234.986
214.844
214.435
241.24
211.011
217.722
223.311
242.31
229.286
212.605
230.852
219.079
222.637
214.573
211.215
223.321
229.559
211.362
210.877
235.589
228.806
231.439
242.167
222.559
215.967
214.363
248.007
229.408
221.695
211.784
214.776
286.261
211.521
212.596
221.416
283.97
211.446
213.5
213.543
209.242
246.07
241.194
227.875
226.486
212.894
226.899
218.761
209.668
210.636
263.124
226.065
217.982
212.352
212.257
252.934
212.819
211.927
211.968
212.495
211.45
240.969
239.385
214.12
227.306
210.519
216.345
210.791
239.692
239.994
212.958
212.136
242.979
224.936
213.083
241.642
251.826
210.856
211.274
230.602
233.453
281.726
242.734
221.936
242.581
212.259
274.249
231.13
239.961
210.673
212.506
258.174
210.884
241.127
211.143
212.072
209.334
212.173
267.405
214.424
225.421
214.489
231.422
227.479
242.118
230.852
246.689
218.703
212.557
211.528
212.443
234.977
221.242
233.353
229.18
211.15
248.083
210.202
219.315
229.355
221.556
222.385
212.224
210.129
230.694
233.993
211.2
211.6
231.409
213.241
225.009
212.269
235.69
212.473
219.977
238.669
222.827
210.743
211.565
233.043
234.41
233.979
211.107
247.776
210.191
232.421
213.282
270.629
220.564
229.914
211.641
213.419
225.872
215.601
246.69
221.671
210.413
210.466
227.629
217.255
225.259
238.853
211.047
213.528
229.826
239.623
257.889
210.723
217.485
217.542
243.199
237.004
228.919
239.807
261.892
238.783
237.762
211.632
232.845
233.638
282.492
229.916
252.797
229.274
212.399
216.349
253.57
271.001
234.09
210.987
233.547
220.776
211.921
267.636
214.917
254.906
237.7
263.231
213.062
211.38
211.011
240.899
211.49
226.196
214.39
219.369
213.351
213.294
244.75
218.286
210.43
212.647
211.345
224.004
234.548
240.077
221.653
211.082
214.503
227.729
219.792
215.731
211.963
212.113
209.941
243.85
211.904
227.088
234.069
226.369
213.146
210.69
229.213
247.371
214.172
213.358
219.759
211.045
251.404
220.334
238.206
242.39
209.087
248.972
251.339
284.398
234.242
238.258
213.462
231.902
235.251
216.773
213.238
222.157
263.169
210.65
275.472
238.547
212.216
234.618
237.331
211.772
211.552
212.057
212.017
212.412
220.925
213.466
230.956
227.01
235.104
210.654
231.759
211.021
252.5
211.146
273.559
232.337
212.814
210.63
212.383
245.608
226.685
212.068
210.909
214.536
231.878
227.568
212.704
210.53
227.232
222.108
233.062
237.006
213.197
212.615
213.58
234.973
220.068
238.445
211.283
238.472
223.46
240.573
229.648
231.452
225.284
219.171
212.206
259.138
229.836
208.156
212.162
231.534
237.392
246.787
227.584
243.531
228.013
210.696
211.193
238.161
220.219
224.297
244.148
209.8
219.77
246.961
212.259
238.677
245.968
237.798
217.515
210.008
227.829
240.58
250.269
211.686
211.341
210.542
211.852
212.109
213.579
224.158
236.033
219.475
247.337
235.027
213.936
239.916
213.467
232.844
234.372
211.906
239.618
242.26
210.497
213.574
233.625
211.678
217.742
255.923
210.026
284.629
210.758
224.122
213.487
212.582
223.961
260.886
211.398
240.579
229.101
210.665
248.882
224.393
212.765
219.73
220.964
212.681
231.912
223.563
211.002
223.35
212.351
230.74
228.265
241.667
227.483
240.209
249.443
220.745
263.873
229.831
212.823
248.885
234.347
221.938
243.057
210.998
234.539
243.519
221.878
239.499
209.719
236.754
237.763
229.46
232.214
231.73
212.034
207.685
215.837
209.653
220.949
232.396
236.55
212.798
213.264
213.241
237.514
233.014
213.422
231.121
211.319
228.926
246.546
237.737
211.492
221.643
244.996
223.519
216.815
228.345
234.805
210.013
211.045
216.107
215.725
210.003
233.464
248.042
214.994
222.254
285.789
231.957
223.947
211.362
218.107
233.127
249.634
245.773
232.866
211.233
210.662
219.596
215.801
210.155
234.538
256.425
217.831
222.11
228.382
228.5
211.107
234.268
230.612
228.599
259.927
239.646
232.108
249.239
235.175
213.63
225.579
223.171
227.15
243.708
256.014
213.802
243.744
240.028
225.261
212.957
213.532
221.305
211.576
211.909
229.34
212.326
233.906
210.405
211.728
237.348
210.449
210.957
264.62
221.843
224.023
246.663
223.249
269.101
209.556
274.77
215.445
223.311
210.033
249.145
236.542
213.767
234.042
235.31
213.641
219.939
210.845
224.916
218.35
211.285
241.669
221.474
209.27
272.436
231.84
234.356
209.476
227.94
213.611
238.081
227.303
250.771
221.781
241.469
210.608
242.459
210.54
213.528
225.899
210.276
231.025
237.82
211.342
222.787
209.49
219.682
212.179
234.38
209.46
230.498
231.154
217.52
212.097
244.523
211.546
212.63
218.109
231.992
237.419
264.794
217.727
237.146
211.409
245.797
229.853
234.629
221.644
224.583
257.598
216.96
219.343
211.139
213.102
243.064
240.588
237.118
213.177
212.173
211.026
213.51
243.509
229.897
243.101
232.357
221.058
211.965
209.452
225.679
268.281
210.438
235.488
237.358
210.928
237.399
214.218
211.894
222.65
227.57
233.752
221.449
234.618
215.083
216.51
214.428
238.134
223.93
252.374
232.324
251.109
214.171
210.792
213.572
254.722
260.109
230.054
237.326
215.192
211.346
245.392
256.279
235.424
215.917
249.071
215.133
219.224
209.935
213.37
269.567
210.923
228.056
229.027
212.993
212.783
212.198
218.02
217.585
210.557
233.631
230.724
246.136
211.39
240.846
251.342
239.918
213.05
210.773
228.744
248.253
240.818
227.262
237.474
218.651
226.41
226.641
233.206
214.616
232.268
231.812
276.612
211.853
212.213
223.217
211.934
210.455
211.031
219.475
211.64
220.614
229.968
221.74
216.322
216.108
226.463
218.65
223.035
209.364
255.133
210.855
227.456
216.943
210.527
226.155
211.264
221.531
210.547
213.366
229.244
259.538
209.178
243.18
212.195
288.839
210.479
217.232
240.969
224.608
243.762
217.397
231.223
260.992
213.177
210.162
239.394
252.849
265.306
229.86
242.324
223.814
232.904
247.249
221.017
235.208
226.412
226.093
218.003
209.487
224.469
216.909
228.265
212.877
236.422
232.546
231.135
226.605
211.455
244.548
277.441
241.243
210.812
234.577
241.099
248.481
211.663
251.9
212.174
268.74
250.114
242.959
254.814
212.466
210.33
232.565
213.691
237.719
238.216
241.453
212.8
242.299
213.072
211.697
223.892
245.575
228.071
218.397
210.938
234.995
225.613
227.394
226.214
218.271
210.834
218.792
227.576
213.406
229.101
213.46
225.402
213.915
213.945
236.89
210.945
248.719
209.956
261.642
238.696
237.32
245.532
241.134
215.255
283.86
211.806
232.715
231.508
216.862
209.848
210.784
226.217
230.234
248.022
224.052
233.549
218.041
213.498
212.879
248.274
210.168
216.428
223.22
211.409
210.862
216.978
221.494
227.625
283.688
247.384
210.409
245.674
241.071
234.639
223.641
243.411
215.94
245.023
212.281
211.663
213.738
224.058
245.488
215.584
211.191
224.677
235.041
211.591
228.642
215.821
238.908
213.043
229.267
239.354
215.544
231.193
221.122
212.647
250.65
211.543
216.07
231.846
224.744
218.403
215.533
211.831
236.956
231.304
226.251
210.707
213.633
215.281
211.118
240.799
228.581
238.922
211.333
227.782
235.385
229.957
242.891
243.097
243.306
211.873
211.321
246.136
242.209
214.27
230.521
225.72
230.769
212.961
221.368
213.494
229.494
232.025
243.281
216.561
211.424
209.785
212.157
243.005
211.34
234.437
226.375
213.785
216.238
230.248
239.811
209.735
211.461
249.461
215.613
234.072
225.929
235.66
209.947
228.284
233.064
215.705
217.756
211.608
234.178
211.732
212.141
237.202
234.651
229.597
239.265
223.065
211.496
211.122
213.901
224.439
211.915
211.071
243.392
232.843
214.672
243.8
214.799
219.739
213.344
211.639
219.038
211.365
208.733
233.175
217.653
223.136
212.754
223.012
210.911
220.613
239.789
211.144
210.956
248.019
209.572
229.835
247.066
220.496
209.904
241.052
210.524
236.826
234.821
211.296
210.862
232.712
221.972
226.725
210.844
233.915
246.874
215.906
226.451
216.529
233.31
257.216
211.999
213.347
241.278
211.531
229.658
246.671
237.735
230.185
211.001
238.472
210.329
216.053
211.407
225.617
227.456
210.905
212.767
238.628
256.903
239.476
247.397
213.431
230.625
211.336
232.978
216.143
267.874
233.409
219.034
211.633
216.1
240.514
211.186
210.935
213.524
234.573
210.305
227.938
238.975
240.227
228.499
286.622
224.733
212.001
211.768
212.222
235.495
211.627
243.037
236.747
233.417
245.401
213.523
242.098
212.065
212.964
230.09
237.8
227.72
241.768
234.451
226.611
214.74
210.678
227.155
264.12
225.481
225.608
213.477
213.163
230.079
225.754
210.683
216.028
209.48
272.783
247.154
212.593
237.015
240.796
213.58
212.346
211.644
210.88
211.172
232.038
243.482
216.012
214.405
227.721
246.832
225.505
252.618
219.508
211.409
222.929
211.323
235.915
227.615
210.905
239.412
241.623
211.61
210.789
256.506
227.084
211.883
212.41
222.98
228.432
233.319
217.107
244.101
211.464
211.549
235.791
260.676
210.697
231.574
211.898
211.531
211.154
210.837
236.242
290.499
210.918
253.798
226.005
245.226
218.964
212.584
239.556
211.19
268.175
224.868
242.279
240.76
210.847
224.4
219.424
216.301
233.946
210.277
289.602
228.556
210.761
234.068
229.742
234.341
211.006
243.321
251.627
225.379
212.192
234.263
236.798
244.409
213.277
211.729
218.914
237.62
209.876
231.317
245.775
228.279
209.969
211.135
226.258
230.254
233.528
211.587
236.215
216.182
233.268
228.316
251.727
212.034
217.344
214.339
236.104
232.698
231.71
210.881
242.096
231.846
223.162
234.362
283.72
209.495
213.856
213.504
211.712
228.584
240.966
211.06
215.751
228.211
263.21
210.249
228.05
213.003
272.82
209.197
209.692
245.666
244.228
210.724
257.487
234.636
210.801
251.574
241.801
210.286
210.432
211.651
256.808
214.317
227.725
270.769
213.433
225.038
273.74
213.453
232.3
225.772
262.041
217.318
252.395
231.144
210.988
213.492
241.831
211.557
237.375
249.191
218.054
213.745
227.64
219.61
220.414
238.062
212.482
222.815
213.51
211.113
216.989
239.107
210.959
243.116
216.321
211.12
238.49
226.732
228.28
235.634
212.763
239.773
213.358
213.593
228.24
221.505
209.884
210.212
249.926
211.126
228.662
214.779
211.18
225.872
218.008
211.756
213.622
211.234
229.075
240.5
236.102
211.06
237.398
213.234
211.801
212.311
223.437
211.135
246.37
210.763
221.617
213.12
226.729
267.956
212.196
213.261
238.842
210.615
211.506
234.257
265.942
234.77
229.806
241.004
212.753
224.831
210.746
210.77
234.019
212.67
210.87
212.301
255.893
247.321
212.406
221.426
211.827
219.41
212.832
236.295
212.668
256.533
210.602
214.562
239.619
222.24
210.946
234.701
225.501
248.796
225.625
225.625
227.886
226.992
209.817
218.372
234.651
223.026
215.703
209.804
216.877
211.813
211.725
233.407
254.28
242.075
233.239
228.458
244.061
211.586
215.888
221.322
248.399
215.231
209.505
240.65
226.834
209.993
229.803
238.821
209.717
252.138