# vtk DataFile Version 3.0
vtk output
ASCII
DATASET POLYDATA
POINTS 10000 float
-72.0487 -40.6418 7.93573
-72.079 -40.6935 12.56
-72.1834 -40.5957 10.6214
-71.9629 -40.4462 14.9823
-72.1291 -40.6017 11.4367
-72.1345 -40.4537 14.3104
-72.072 -40.6228 9.15929
-72.201 -40.609 11.2091
-72.0789 -40.4758 11.1147
-72.089 -40.4644 9.68237
-72.3652 -40.4279 8.78097
-71.998 -40.6982 9.53171
-72.1018 -40.6113 14.5842
-72.148 -40.595 12.2901
-72.162 -40.5985 13.4948
-72.0718 -40.7389 11.2992
-71.9972 -40.7116 8.54575
-72.09 -40.6465 14.2229
-72.0794 -40.6348 11.5989
-72.0487 -40.4742 11.8786
-72.1701 -40.6921 6.89807
-72.1485 -40.6246 14.4481
-72.2611 -40.5963 12.853
-72.0598 -40.7659 7.93613
-72.1369 -40.5439 9.69731
-71.9665 -40.5742 8.15287
-72.1024 -40.7513 7.80751
-72.0233 -40.6291 15.507
-72.1139 -40.4786 9.31499
-71.9594 -40.6755 12.8029
-72.1265 -40.6679 7.21806
-71.9279 -40.3476 11.2726
-72.0845 -40.559 8.97061
-72.0786 -40.5659 9.11002
-72.157 -40.3528 11.0433
-72.2744 -40.7512 12.7816
-72.0829 -40.5293 9.58835
-72.2012 -40.4413 12.0778
-72.1736 -40.5306 11.5305
-72.1324 -40.5597 13.0017
-72.1921 -40.6898 7.65532
-72.1 -40.7012 8.07144
-72.0842 -40.5851 12.0069
-72.3633 -40.6898 11.5572
-72.1995 -40.438 11.0452
-71.9408 -40.5652 10.7866
-72.2701 -40.536 10.6156
-71.9057 -40.7061 10.7251
-71.8861 -40.3662 11.5281
-72.0744 -40.6847 7.15582
-71.9703 -40.7867 12.8307
-72.2666 -40.6645 9.83913
-72.2779 -40.5414 9.64139
-72.0222 -40.5699 8.19454
-71.9935 -40.6195 12.7702
-72.114 -40.7506 8.8031
-71.9427 -40.5403 14.0746
-72.0638 -40.4163 7.87631
-72.403 -40.4842 9.19243
-72.1581 -40.6109 11.3236
-72.1173 -40.3973 9.44607
-72.1351 -40.7711 9.68489
-71.9366 -40.5078 8.44843
-72.2277 -40.5808 10.4908
-72.3315 -40.6577 9.57803
-72.032 -40.4238 8.51391
-72.0096 -40.5648 15.8602
-72.2516 -40.7167 10.3419
-71.9793 -40.5049 18.1818
-72.2162 -40.5373 14.9107
-72.3908 -40.5344 13.4579
-72.1628 -40.7382 8.50173
-72.0546 -40.4439 13.4778
-72.389 -40.6726 8.77603
-72.0992 -40.5621 15.1351
-72.0355 -40.5309 7.08125
-72.1062 -40.5591 11.8394
-72.0779 -40.3011 7.20424
-71.8768 -40.7196 11.9101
-72.0691 -40.6615 6.86812
-72.1676 -40.8956 8.08155
-71.9871 -40.52 6.88304
-72.2827 -40.562 9.9088
-72.2668 -40.5453 12.8527
-72.0251 -40.5584 11.2145
-72.0424 -40.3403 13.8989
-72.0444 -40.6232 9.79825
-72.1975 -40.4537 10.2568
-72.3881 -40.5637 7.9726
-72.1225 -40.6922 14.2904
-71.936 -40.6737 7.91655
-72.1596 -40.5784 9.35862
-72.0164 -40.2143 12.2878
-71.8572 -40.597 19.0995
-72.027 -40.6608 8.85688
-72.0241 -40.4146 9.88196
-72.1786 -40.6091 7.33986
-72.2886 -40.5966 7.70087
-72.0356 -40.5586 11.3386
-72.2504 -40.3713 7.62672
-72.0826 -40.5094 8.95539
-72.0727 -40.6089 8.97015
-72.2582 -40.4157 8.15853
-71.897 -40.6799 12.0863
-72.2134 -40.4676 8.3761
-72.1335 -40.6343 8.81544
-72.3608 -40.6353 13.107
-72.125 -40.5554 11.2896
-72.4124 -40.5547 11.8266
-72.088 -40.6029 12.9508
-71.9003 -40.6978 9.87622
-72.1289 -40.6488 11.9571
-71.8319 -40.6386 12.6104
-72.1259 -40.8937 12.3078
-71.8876 -40.738 9.82437
-71.9238 -40.6298 10.6881
-71.852 -40.6131 7.93132
-72.0534 -40.3726 10.0594
-71.9771 -40.5235 8.91991
-72.0366 -40.3111 9.84219
-71.9876 -40.5321 13.6517
-72.5574 -40.5059 15.7346
-72.1447 -40.5391 10.5797
-72.1936 -40.5861 11.6695
-71.8149 -40.6527 9.63352
-72.3245 -40.7255 7.76667
-71.9538 -40.6256 11.3694
-72.084 -40.4879 14.4004
-72.2393 -40.3645 9.20109
-72.1281 -40.4554 9.76865
-72.1665 -40.6519 10.4922
-72.0422 -40.6661 7.03052
-71.9196 -40.8002 9.0893
-72.11 -40.7032 11.7064
-72.3078 -40.5355 10.7805
-72.5154 -40.53 8.05446
-71.8471 -40.5771 9.92917
-72.3653 -40.4864 11.3294
-71.9446 -40.382 11.8203
-71.7807 -40.6626 9.08565
-72.1067 -40.6126 10.6107
-72.1685 -40.6203 6.7547
-72.2239 -40.5463 13.1497
-72.0334 -40.6224 16.779
-72.2754 -40.5558 10.1432
-72.2086 -40.5367 14.6656
-71.9718 -40.5661 8.87613
-71.9046 -40.6287 7.78394
-71.8612 -40.5148 8.10769
-71.8613 -40.656 8.28571
-72.0476 -40.5515 12.782
-72.2437 -40.5933 6.83491
-72.0842 -40.5811 6.18983
-72.0022 -40.5861 15.6048
-71.9762 -40.7326 11.6241
-71.9807 -40.4117 10.2514
-72.0136 -40.4005 7.66083
-72.3332 -40.5095 10.3634
-71.9384 -40.7335 10.2003
-71.9951 -40.4051 11.3762
-72.0837 -40.4803 9.08635
-72.3601 -40.5619 11.4471
-72.1869 -40.6477 7.37559
-72.4701 -40.7021 12.1779
-72.2576 -40.5829 14.0164
-72.1663 -40.7216 15.1272
-72.127 -40.6065 9.03635
-71.7603 -40.6459 8.11885
-72.2939 -40.8694 11.1399
-72.2729 -40.6887 7.8857
-72.0195 -40.4811 10.1557
-72.2533 -40.5663 9.3352
-72.0596 -40.7241 15.8498
-72.1093 -40.7135 17.0557
-72.2847 -40.5601 10.4311
-72.6359 -40.5637 11.9029
-71.8472 -40.4106 8.79463
-72.0458 -40.535 10.0345
-71.9998 -40.5474 10.0289
-72.1908 -40.5892 9.00966
-72.1424 -40.495 10.2722
-71.9264 -40.5486 9.9983
-72.0725 -40.6215 9.13167
-71.824 -40.4413 8.5931
-72.148 -40.5011 9.98971
-72.066 -40.7221 12.1732
-72.04 -40.7878 10.1531
-72.2282 -40.3148 11.6873
-71.9118 -40.4811 13.135
-72.1658 -40.5086 9.88537
-71.9008 -40.5832 10.3409
-72.1428 -40.6175 10.9515
-71.965 -40.8529 10.5812
-72.1984 -40.4857 12.4316
-72.1703 -40.5188 16.0607
-72.185 -40.7822 10.6664
-72.0537 -40.6777 6.11618
-72.3438 -40.5868 14.0085
-72.2085 -40.4517 12.4457
-72.0401 -40.6293 9.58321
-72.0665 -40.5775 9.02823
-72.1047 -40.5139 12.4454
-71.999 -40.7916 7.99899
-72.0506 -40.3859 7.10173
-71.9917 -40.5697 12.133
-71.8629 -40.7401 11.2276
-71.8814 -40.5797 8.84058
-71.9961 -40.6516 9.62332
-72.0701 -40.6172 9.47819
-72.349 -40.4165 16.2947
-71.9296 -40.6048 7.61863
-72.2647 -40.6074 7.01362
-71.9289 -40.4894 9.24602
-72.0707 -40.5108 9.47846
-72.1094 -40.3947 8.49218
-72.2912 -40.8399 8.2287
-71.7371 -40.4951 9.75307
-72.2149 -40.3928 10.2676
-72.3844 -40.8509 11.3979
-72.222 -40.7158 7.88352
-72.1423 -40.6408 11.8929
-72.099 -40.3226 11.2185
-72.2514 -40.5897 8.55507
-71.9521 -40.7237 10.8293
-72.2453 -40.5096 10.6755
-72.0508 -40.5505 8.98372
-72.068 -40.6752 7.35694
-72.3669 -40.5611 9.12156
-72.0854 -40.5888 9.8573
-71.8643 -40.5331 10.7363
-72.1903 -40.7059 13.1587
-72.0146 -40.5965 10.3011
-71.9793 -40.6032 9.91051
-71.9851 -40.7267 8.70452
-72.0299 -40.4293 9.41723
-72.0447 -40.545 8.38207
-72.2646 -40.676 9.76156
-72.0346 -40.5603 12.6859
-72.1565 -40.4414 9.09443
-72.1139 -40.6657 8.71532
-72.2293 -40.4965 11.0656
-72.2073 -40.4674 11.0312
-72.1807 -40.929 8.91773
-72.1892 -40.5831 12.466
-71.9796 -40.8556 11.3906
-71.732 -40.5355 6.67973
-72.1879 -40.5801 9.07986
-72.0714 -40.6356 10.8415
-71.8521 -40.6201 7.68023
-72.1223 -40.4661 9.47708
-72.4831 -40.8449 10.4598
-72.085 -40.5793 7.87938
-72.2801 -40.7684 10.7326
-72.3106 -40.6834 11.7697
-72.1511 -40.588 7.31404
-72.3465 -40.5072 7.09885
-71.8598 -40.5806 9.75834
-72.1357 -40.495 13.6309
-72.2473 -40.6477 16.0638
-72.111 -40.5951 8.41759
-72.2816 -40.6534 9.21132
-72.2121 -40.6643 10.0476
-72.4439 -40.6528 7.26885
-72.2746 -40.7255 13.7327
-72.1825 -40.6568 11.1272
-72.0282 -40.691 9.85521
-71.9814 -40.7498 7.66594
-72.2125 -40.467 12.6974
-71.9429 -40.5637 6.67784
-72.0458 -40.6249 8.40899
-71.9938 -40.4395 7.76622
-72.3596 -40.5413 13.8238
-71.9914 -40.4694 9.35511
-72.1991 -40.8286 13.3406
-72.0973 -40.636 12.7862
-71.8678 -40.5664 9.6271
-72.2016 -40.8053 8.90044
-71.8511 -40.552 11.6854
-72.1047 -40.6298 6.70737
-72.2715 -40.7114 9.47199
-72.1905 -40.5693 9.99551
-71.9551 -40.5842 9.05825
-71.793 -40.7079 7.72919
-72.0697 -40.5937 18.466
-72.1245 -40.6432 10.1395
-72.2632 -40.4237 11.002
-72.3157 -40.3793 14.1383
-72.0414 -40.3839 11.3655
-72.1486 -40.8124 8.30647
-72.3142 -40.4306 10.7306
-71.9926 -40.7097 10.3314
-72.2197 -40.5133 9.35383
-72.0745 -40.5369 11.8781
-71.904 -40.5327 14.0105
-72.1507 -40.4994 10
-72.2086 -40.6392 7.82609
-72.319 -40.6232 9.21236
-72.0874 -40.5808 8.01767
-72.2183 -40.5422 9.60645
-72.0918 -40.4261 10.9833
-72.108 -40.535 6.73771
-72.0479 -40.766 13.1867
-72.0444 -40.5964 12.1564
-72.1885 -40.7258 15.2104
-72.1815 -40.7016 12.4653
-72.0318 -40.6292 13.9962
-72.0065 -40.4231 11.279
-72.0293 -40.8042 9.4654
-72.1914 -40.5031 12.1432
-72.0317 -40.7708 7.6343
-72.0554 -40.6163 7.03128
-71.9363 -40.5016 14.2507
-72.2909 -40.6221 13.7516
-72.1555 -40.5573 10.936
-72.3486 -40.4817 10.0656
-71.9887 -40.5894 11.081
-72.0564 -40.4173 12.0943
-72.222 -40.4257 13.3804
-71.7704 -40.5785 8.9848
-72.4119 -40.4858 9.63176
-71.6174 -40.5796 8.80952
-72.0842 -40.6749 12.7542
-72.1346 -40.4164 11.6791
-72.3453 -40.5024 14.4779
-72.1947 -40.6787 9.13559
-72.255 -40.5895 10.086
-72.22 -40.6916 7.86785
-71.8519 -40.6586 10.2602
-72.2757 -40.6417 7.98863
-72.0965 -40.5727 5.80654
-72.0572 -40.5569 17.6596
-72.1867 -40.595 14.8973
-72.0641 -40.6973 11.5604
-71.9316 -40.7772 7.75502
-72.1289 -40.6589 10.1859
-72.402 -40.6247 8.83248
-72.3204 -40.5549 13.4098
-72.4494 -40.553 9.25622
-72.5347 -40.6134 7.89081
-72.3921 -40.5606 11.3608
-72.0853 -40.6061 9.56683
-72.2485 -40.7663 8.54054
-72.2577 -40.4998 12.5056
-72.0834 -40.5767 9.42423
-71.8524 -40.5019 14.1132
-72.2205 -40.5251 9.32147
-72.2574 -40.5117 16.5046
-72.0443 -40.4046 14.1664
-72.0104 -40.8071 13.1462
-72.2715 -40.4691 9.53484
-71.8887 -40.6149 8.95027
-72.4355 -40.679 9.8714
-72.2662 -40.525 7.17455
-72.1381 -40.6333 10.8645
-71.7855 -40.6151 12.5607
-72.2232 -40.5838 9.1641
-72.0279 -40.587 8.9115
-72.3404 -40.495 9.25771
-72.2085 -40.573 9.71954
-72.155 -40.557 8.65502
-71.9641 -40.6552 9.85724
-72.2143 -40.7308 27.4517
-72.0705 -40.5322 9.54948
-71.7961 -40.5608 15.8876
-72.165 -40.7385 6.90993
-71.9012 -40.4896 8.57006
-72.0776 -40.5299 15.9951
-72.0416 -40.6777 10.8598
-72.414 -40.5784 8.7514
-71.993 -40.3604 14.4701
-71.9763 -40.312 10.1207
-72.2214 -40.605 12.4851
-71.8795 -40.5505 8.58689
-72.0148 -40.8133 11.9491
-72.1486 -40.8452 8.70607
-72.0817 -40.4029 17.6134
-72.116 -40.6951 9.56371
-72.0378 -40.4892 13.1763
-72.051 -40.595 15.1725
-71.9435 -40.2969 13.1207
-71.965 -40.7054 11.7995
-72.0861 -40.5528 8.04833
-72.3171 -40.5583 15.583
-71.8173 -40.6187 9.03542
-71.9937 -40.5613 18.6725
-71.9534 -40.5839 14.6637
[...]
POINT_DATA 10000
SCALARS t float 1
LOOKUP_TABLE default
228.53
216.895
215.562
217.195
215.948
217.391
219.942
215.752
215.681
217.438
222.313
217.993
217.433
216.933
216.921
215.609
224.011
217.291
216.083
216.534
236.413
217.419
217.061
228.5
217.369
226.952
229.459
216.27
219.11
216.79
233.993
215.768
221.105
220.237
215.79
217.047
217.819
216.892
216.162
216.933
230.579
227.471
216.641
216.25
215.758
215.389
215.671
215.262
216.016
234.494
216.774
216.917
217.634
226.611
216.836
222.164
217.138
229.015
219.788
215.82
218.493
217.32
224.777
215.714
217.872
224.28
215.483
215.765
213.329
217.327
217.06
224.265
216.87
222.292
217.016
235.118
216.484
234.193
216.261
236.707
227.33
236.67
216.761
217.077
215.643
217.072
216.987
216.039
228.088
217.345
228.73
218.846
216.97
213.327
221.842
216.812
233.029
230.192
215.772
230.821
221.215
221.099
226.795
216.48
225.199
222.1
217.073
215.791
216.76
216.898
216.651
216.602
216.695
216.787
216.798
215.335
228.671
216.374
221.461
216.986
216.863
216.01
215.613
216.32
217.509
229.651
215.685
217.406
219.772
217.18
215.623
235.483
220.311
216.21
215.689
227.418
216.516
216.113
216.419
220.375
215.506
237.514
216.974
213.842
216.224
217.495
221.744
229.766
227.35
225.984
216.898
236.861
241.776
216.048
215.949
215.955
230.688
215.934
215.837
215.903
220.392
216.202
232.74
217.098
217.213
217.028
220.664
227.293
215.566
228.785
216.114
218.985
215.517
213.643
215.814
217.069
222.35
216.33
216.314
220.832
215.954
216.345
220.1
223.777
216.493
216.698
215.952
216.569
216.753
216.812
215.651
215.502
215.263
217.053
215.106
215.407
242.329
217.241
217.077
217.796
220.729
216.955
228.05
234.978
216.668
215.367
221.998
217.6
218.273
214.712
231.025
235.49
219.484
218.306
224.413
226.188
217.086
216.068
215.931
228.824
216.538
215.9
223.878
215.274
215.656
221.026
232.949
220.157
216.83
215.36
216.924
215.764
216.616
222.879
218.599
225.212
217.152
216.897
220.35
222.779
215.753
215.73
221.356
217.014
215.557
238.384
220.397
215.432
230.589
218.336
215.713
228.952
215.486
216.5
233.25
234.798
217.073
216.936
215.13
224.918
219.64
216.311
233.42
217.04
215.633
216.769
230.604
217.083
238.259
225.001
229.885
217.149
218.881
216.896
216.921
217.582
221.491
216.045
237.917
218.301
216.459
220.544
230.23
213.36
216.104
215.788
217.343
215.948
225.679
215.771
215.631
218.897
216.518
217.074
216.464
229.28
219.642
227.9
217.767
215.629
237.698
216.81
216.725
216.887
216.963
217.105
215.783
218.263
216.902
230.817
235.478
217.274
217.069
215.56
216.442
215.488
216.777
216.962
221.049
217.73
222.268
216.904
216.398
217.507
220.058
216.3
228.949
215.715
228.013
244.554
213.379
217.318
215.974
229.944
216.008
221.932
217.012
219.426
228.619
216.119
217.886
223.952
217.116
218.529
217.138
219.069
214.277
217.26
216.782
218.112
221.255
216.874
234.265
215.485
216.646
219.921
221.495
219.43
217.308
223.21
216.755
214.758
217.985
215.326
236.319
223.909
215.21
215.376
222.466
217.408
216.255
217.04
223.783
216.388
222.8
213.365
217.875
216.84
216.926
216.803
216.202
227.676
216.231
220.699
213.333
217.405
216.763
219.869
216.042
218.46
216.895
216.543
216.008
221.896
215.375
216.71
217.381
221.173
216.75
215.55
216.759
218.618
230.141
217.148
238.841
213.894
228.233
235.936
215.417
213.443
215.325
215.809
235.591
217.158
215.852
218.53
216.172
218.311
216.769
219.12
224.127
215.459
222.175
216.88
234.876
219.374
225.365
218.428
228.441
215.765
218.582
227.559
216.237
216.797
215.456
222.958
218.455
225.972
216.544
219.38
217.085
215.758
229.67
215.776
216.024
217.511
218.348
216.521
226.469
215.764
217.83
216.225
216.986
218.749
232.243
215.202
215.458
216.273
216.933
215.54
232.186
230.669
217.09
228.017
232.201
227.95
215.724
215.71
217.396
217.433
221.767
215.597
217.157
216.85
216.018
224.013
216.344
215.738
219.471
234.066
216.467
217.225
216.798
216.456
216.002
233.046
232.561
215.562
217.086
218.684
230.38
217.883
221.959
216.072
238.487
217.032
216.931
227.586
220.563
226.154
235.773
216.851
216.152
219.875
216.771
215.271
215.401
216.535
222.198
217.26
215.828
240.66
215.441
226.107
229.846
226.992
216.516
216.07
217.325
216.306
215.853
217.904
225.445
217.113
227.996
217.225
216.804
216.651
235.337
215.603
217.029
220.041
219.645
236.629
217.133
216.803
244.896
214.382
226.012
215.014
235.906
217.662
216.063
220.631
220.282
216.948
217.414
216.457
221.187
216.048
230.032
226.322
232.235
213.441
234.473
222.435
217.142
226.419
216.745
216.711
215.578
216.675
216.423
216.084
216.928
222.723
215.585
223.84
216.975
215.593
217.765
227.629
216.574
216.87
216.479
216.621
213.946
215.798
216.11
216.868
226.555
217.062
216.296
218.512
216.502
226.189
240.465
215.874
222.56
222.649
222.449
216.989
215.942
217.16
220.896
215.867
215.151
235.595
239.768
216.842
234.789
215.511
216.27
217.919
215.928
220.552
216.732
224.589
215.939
215.347
216.868
216.669
216.384
217.911
216.92
216.372
216.885
224.407
215.815
215.798
218.093
217.068
216.03
217.697
216.107
216.812
216.695
216.115
233.949
236.419
233.401
217.587
216.023
215.628
217.269
224.99
216.011
229.532
217.059
217.772
217.283
217.052
215.839
216.987
221.232
217.639
219.905
216.902
216.449
217.395
215.748
216.616
230.767
216.921
227.681
220.853
222.165
232.272
218.563
225.44
217.426
219.578
239.992
216.338
215.58
217.698
222.76
216.031
215.203
217.242
218.708
213.495
216.84
218.537
215.46
216.387
217.359
216.225
216.438
216.558
216.628
216.238
228.19
216.135
217.687
227.243
217.086
217.071
233.561
227.018
216.866
215.533
216.962
238.851
215.798
217.049
215.524
219.041
241.23
218
219.599
216.726
220.689
215.315
216.49
229.407
215.747
216.876
216.882
235.808
235.874
216.881
224.971
214.494
232.06
224.059
216.884
215.566
217.079
215.5
219.87
215.439
216.996
216.407
217.095
220.759
229.76
215.949
215.74
219.961
215.77
217.061
216.843
222.748
230.043
216.175
215.501
223.688
216.868
216.081
224.543
232.651
231.391
225.402
218.615
215.492
216.025
217.549
217.071
213.462
215.236
217.254
217.21
218.931
216.741
226.882
217.454
222.833
215.732
216.914
228.941
228.595
231.575
216.518
235.89
233.254
219.453
220.83
216.039
219.947
218.844
215.559
216.695
216.812
219.701
216.755
229.194
224.675
215.37
216.563
239.416
216.473
216.383
215.654
217.255
229.662
224.984
218.703
215.328
215.608
215.586
217.253
229.512
216.526
216.75
228.775
215.376
221.049
227.264
218.762
216.537
226.763
215.556
213.286
217.076
215.414
216.309
221.403
216.53
215.721
218.94
217.01
221.48
216.921
217.356
230
236.571
230.647
231.922
231.485
234.134
216.579
237.148
222.071
224.16
224.241
216.883
218.643
216.26
215.467
239.722
216.154
216.321
217.041
228.448
224.341
215.791
217.652
215.564
216.971
238.674
215.495
229.892
219.738
217.039
215.699
221.69
234.362
216.067
216.761
215.473
219.571
226.001
219.861
215.308
216.706
215.481
216.81
216.917
215.925
231.627
228.195
216.443
216.94
216.153
217.052
217.124
216.601
215.457
234.204
215.51
213.466
216.301
216.665
219.647
220.445
215.514
217.067
216.426
226.628
217.357
230.535
228.89
215.766
215.382
222.891
216.759
219.498
215.763
215.789
240.142
221.323
213.484
215.533
220.17
223.105
216.127
218.83
227.34
218.512
217.173
215.307
216.83
220.755
215.643
218.579
216.937
215.954
216.9
215.839
216.831
219.732
216.062
215.857
216.621
222.658
222.676
216.996
215.387
215.349
215.382
216.828
243.77
223.949
215.547
215.586
215.66
219.163
217.379
216.955
217.268
220.627
217.181
229.212
216.376
239.59
217.477
220.812
219.37
232.808
217.161
234.818
216.751
215.434
218.614
218.639
219.313
216.026
215.628
216.183
216.829
216.361
220.414
217.353
231.367
236.648
215.659
237.136
213.368
216.721
223.637
217.8
216.78
216.514
231.606
223.32
215.643
216.821
217.005
216.099
223.638
216.686
243.427
215.781
217.176
224.236
215.653
216.934
224.537
217.417
213.92
216.84
220.613
216.965
213.453
216.699
217.079
217.003
226.416
216.953
217.06
217.163
219.387
230.138
216.169
216.478
219.521
215.574
216.863
215.72
217.131
217.032
215.588
216.917
238.883
215.803
216.747
223.18
217.01
223.223
216.005
216.996
231.242
234.178
228.504
215.769
216.783
216.843
220.8
226.258
218.614
219.177
217.051
215.87
227.9
216.135
216.281
216.89
217.441
216.705
235.216
216.623
216.575
216.207
225.725
230.36
217.263
216.208
221.338
236.132
216.374
247.107
235.279
228.221
219.324
228.992
221.457
217.112
228.119
215.542
216.871
220.172
218.076
219.38
223.35
223.368
221.999
217.343
231.548
215.641
215.685
215.983
230.215
216.627
216.037
216.293
216.486
219.15
216.8
217
226.06
215.65
227.069
221.372
216.999
216.01
236.12
219.975
229.956
215.505
215.866
216.227
220.355
219.301
228.137
218.227
215.495
216.836
216.964
215.588
233.476
226.423
215.382
229.099
236.364
217.056
230.582
225.309
216.914
215.834
217.478
215.851
231.427
217.168
233.974
217.065
227.097
240.522
217.54
245.997
216.971
215.631
225.516
230.423
215.52
216.146
223.837
215.881
248.058
216.995
220.758
216.371
220.88
215.984
225.859
215.666
227.841
216.509
215.544
217.002
215.586
221.377
216.917
217.219
217.158
235.721
243.329
219.27
217.336
215.378
223.661
216.867
215.566
216.972
240.72
216.693
216.86
218.654
215.481
217.147
216.266
216.832
220.116
216.896
215.969
213.439
224.927
215.64
216.832
216.48
242.273
229.319
218.637
223.836
230.676
217.319
226.603
217.155
222.053
215.65
223.574
215.706
229.201
227.152
226.563
223.885
223.584
216.399
226.214
230.627
226.219
216.834
216.995
216.824
216.904
219.071
216.884
220.415
231.266
215.805
215.864
216.36
242.129
216.775
215.541
216.289
224.986
215.734
238.128
215.599
215.527
216.742
217.425
216.493
229.079
216.759
221.04
221.401
216.941
218.461
221.115
241.869
217.422
217.077
235.22
220.184
216.045
216.897
217.077
216.305
218.088
217.106
232.248
214.219
217.11
220.247
216.993
219.585
239.003
233.049
216.104
216.755
216.997
221.829
234.416
217.273
215.753
215.837
236.871
213.36
213.879
224.451
228.382
217.34
236.874
215.335
216.661
215.522
228.279
216.547
224.73
217.08
215.57
223.354
217.047
217.071
222.983
220.828
216.965
217.425
217.443
216.411
230.311
221.698
215.775
215.957
216.831
216.273
215.368
216.547
216.877
237.53
216.226
222.045
215.982
215.815
237.7
216.897
216.138
215.935
217.151
215.535
220.575
219.791
214.157
215.953
216.178
215.368
216.056
227.828
224.06
217.404
215.922
225.506
226.355
216.771
234.312
222.524
216.769
216.999
217.784
218.818
218.212
225.546
216.697
217.985
217.01
226.441
220.888
239.338
216.445
217.162
228.593
214.378
218.365
215.559
216.331
216.429
213.439
223.966
217.256
217.725
217.326
216.245
230.324
227.51
239.124
223.828
215.238
215.949
215.561
217.161
217.261
216.91
221.203
227.322
216.66
231.787
216.254
216.187
217.281
215.515
215.631
216.109
215.588
220.191
216.438
216.794
216.849
217.33
217.179
216.183
217.239
219.025
216.99
216.463
220.266
216.103
216.031
215.438
221.115
225.508
219.048
216.365
229.907
215.62
218.664
217.165
229.905
215.562
217.199
216.396
217.276
215.438
215.599
226.588
218.718
217.045
214.001
216.555
215.507
218.603
218.894
216.827
217.405
218.714
240.092
223.69
215.714
221.316
215.452
236.291
218.884
219.857
218.797
229.093
236.191
218.571
215.545
217.011
217.277
220.368
216.502
227.569
233.266
216.977
215.637
240.518
237.083
218.819
215.917
219.437
226.473
216.159
224.071
215.753
232.015
220.695
232.83
217.266
216.414
216.541
238.571
217.119
215.653
215.879
215.477
217.132
217.238
227.735
215.659
216.1
215.574
215.204
217.014
222.928
219.551
215.493
216.38
216.968
216.622
221.519
218.714
215.392
216.829
216.857
218.512
216.122
216.406
223.58
215.855
216.927
216.21
229.968
229.998
217.102
217.021
227.472
215.831
229.405
215.656
232.274
221.404
217.063
222.767
226.092
221.809
218.141
226.79
217.124
218.563
228.149
216.366
217.328
215.434
228.074
216.966
228.894
220.619
217.009
237.039
220.626
216.187
216.044
215.72
215.622
216.048
218.532
216.896
218.416
216.214
217.287
216.849
226.434
216.592
226.358
215.622
242.543
216.22
216.784
215.529
215.807
227.778
232.415
216.384
216.859
215.788
231.237
227.264
215.503
217.125
216.316
215.557
224.724
235.252
216.89
217.016
217.254
219.333
215.727
231.489
215.806
222.88
217.034
224.706
217.169
221.203
215.504
227.917
213.434
224.87
217.026
216.04
215.792
219.096
224.972
219.542
229.528
230.397
215.238
215.93
215.837
235.228
224.029
215.483
219.058
216.494
220.345
217.963
216.893
220.604
230.534
218.998
218.887
215.9
216.283
224.217
229.255
215.872
215.48
215.657
216.585
216.129
217.236
227.639
216.392
216.149
229.537
219.304
215.237
220.275
217.257
219.061
222.63
215.871
238.993
219.119
215.658
217.145
218.096
216.562
220.68
224.766
216.866
224.315
216.53
242.419
216.976
217.088
226.61
236.033
216.928
236.127
218.482
216.909
232.08
217.93
216.35
222.741
215.674
216.832
218.463
215.812
216.57
216.751
216.854
217.416
219.974
218.369
223.554
220.292
233.706
219.668
225.77
216.621
213.54
221.103
220.144
226.916
221.586
215.64
215.88
227.131
226.223
231.404
216.709
220.858
237.45
218.614
216.886
217.843
217.435
216.856
215.225
216.541
215.722
217.54
218.397
217.278
217.303
217.042
230.514
217.626
215.437
220.823
216.802
226.687
218.418
219.141
216.115
215.713
222.467
217.332
218.555
218.561
239.307
217.142
215.33
217.201
215.843
216.756
227.364
219.88
216.7
215.962
228.053
222.029
217.963
216.491
215.804
217.769
221.059
235.074
218.251
216.851
216.887
224.407
215.834
216.414
216.144
228.306
225.174
225.849
217.498
216.935
216.871
216.088
216.722
215.951
226.779
223.322
219.975
231.509
221.824
217.128
225.142
219.536
215.522
223.588
222.694
215.811
234.893
235.55
230.832
216.93
217.473
215.549
215.729
216.744
218.434
215.962
218.152
213.767
216.751
216.224
216.515
216.484
229.512
217.29
221.998
225.266
215.882
229.224
216.384
221.059
215.688
223.435
216.955
229.136
220.874
219.881
219.386
234.79
215.538
218.384
215.685
216.305
217.333
215.847
223.85
215.739
216.799
234.504
232.741
219.798
216.137
215.688
217.441
234.784
225.418
224.801
216.343
223.545
215.932
220.003
216.99
216.827
216.163
216.929
217.978
217.325
216.739
215.589
213.881
224.583
216.939
220.398
216.809
217.326
231.979
216.098
213.466
226.755
216.805
216.777
222.345
218.265
229.491
239.31
215.416
222.95
216.739
235.352
217.191
219.935
216.84
215.902
232.436
215.231
224.031
216.072
216.695
238.994
222.952
234.659
217.077
216.768
216.779
217.211
226.251
218.902
217.696
231.342
220.634
216.728
216.255
236.803
232.211
215.953
234.477
236.349
215.378
224.367
216.999
216.985
226.029
218.639
224.81
215.559
218.187
215.725
215.657
218.568
217.632
223.584
220.802
218.283
238.885
216.893
216.7
217.979
226.628
228.05
217.045
224.685
214.438
215.194
221.032
223.51
216.081
215.806
227.588
215.439
215.559
215.847
216.88
225.331
215.197
215.972
223.026
216.928
214.996
216.93
216.634
215.427
215.813
224.359
217.331
230.511
216.776
222.172
225.361
223.9
216.412
216.906
215.51
228.255
218.859
216.017
227.249
223.665
218.053
216.542
216.358
216.342
217.289
220.001
220.13
214.839
216.69
216.198
215.354
216.753
214.135
215.485
215.497
220.316
219.126
228.332
215.611
215.161
235.11
215.444
216.839
215.793
226.92
216.864
217.078
217.054
216.963
216.741
215.663
233.275
215.07
217.059
238.456
228.804
216.821
229.943
217.29
220.482
216.525
216.073
222.494
217.63
218.934
219.935
217.047
226.257
217.307
216.773
222.184
227.122
226.75
216.617
227.162
217.568
218.631
225.11
215.514
220.291
215.811
219.425
215.962
216.841
217.011
218.356
215.782
216.862
220.426
218.396
216.957
215.885
215.749
223.992
235.112
238.652
215.897
216.103
239.515
232.67
216.431
234.675
215.415
230.479
229.33
226.663
228.929
213.41
216.445
218.756
216.68
220.281
217.813
239.227
216.548
222.8
215.636
215.98
225.479
220.474
217.112
221.359
216.403
224.703
217.135
216.59
215.794
215.722
215.906
216.045
216.709
217.014
228.016
217.169
226.487
217.367
217.362
217.966
215.738
232.583
216.161
233.469
236.844
231.171
231.39
228.87
215.577
218.767
216.903
219.599
223.856
216.048
217.05
216.38
216.673
216.162
233.695
230.109
220.093
216.79
217.357
217.389
232.222
216.333
216.261
224.269
216.044
215.459
224.19
215.932
230.847
223.257
227.58
216.886
228.311
227.394
218.275
215.806
220.681
215.871
232.345
215.454
216.278
213.771
215.498
221.483
214.488
217.01
215.507
218.852
215.931
235.857
237.524
238.104
216.862
217.637
220.989
216.03
221.668
222.922
215.345
239.135
216.713
216.118
231.948
216.727
215.528
214.413
217.011
240.579
218.508
215.809
215.909
217.295
216.036
215.62
223.625
215.55
221.391
216.951
218.555
219.292
216.578
224.468
222.366
220.359
216.643
215.564
230.935
219.469
213.938
218.52
215.364
231.28
217.35
224.831
216.993
216.083
222.934
222.263
215.788
215.946
216.609
216.818
242.572
217.072
219.319
226.591
217.209
215.576
218.697
227.016
216.818
216.787
237.084
228.25
218.173
216.238
234.401
216.158
220.567
224.752
215.578
215.785
217.022
235.494
216.318
216.882
218.421
223.161
218.871
220.213
215.837
216.44
215.683
215.745
219.85
216.47
216.125
223.65
216.529
216.382
228.189
215.457
216.548
217.152
216.234
215.233
216.614
215.954
219.974
219.497
221.53
216.907
215.734
215.487
216.719
227.054
215.555
216.181
227.251
216.804
216.204
229.202
215.271
216.903
222.797
217.001
231.079
220.3
215.791
216.911
246.133
215.702
235.473
215.663
220.818
229.979
215.765
221.471
215.631
239.754
223.308
216.707
222.365
219.889
216.952
229.616
226.651
221.956
228.523
216.895
220.742
216.868
215.573
216.776
216.388
229.115
216.142
216.955
228.694
222.979
216.368
226.575
217.414
222.656
215.686
217.039
215.634
225.521
230.181
232.082
213.317
217.357
225.714
216.8
215.678
216.914
218.549
215.655
219.285
221.049
219.803
218.068
230.402
218.273
217.075
216.784
215.678
220.82
215.628
220.9
217.122
221.127
226.123
217.229
219.734
216.947
216.994
220.355
231.761
228.832
223.407
221.637
215.533
215.525
215.807
218.896
223.912
215.953
219.15
217.365
216.961
215.957
236.243
216.504
217.476
216.393
225.466
226.745
217.167
219.078
225.437
215.889
216.823
216.032
216.878
215.722
217.445
222.845
215.57
216.802
217.611
231.096
220.677
234.66
220.455
216.856
225.253
213.439
217.322
217.038
216.953
222.269
222.89
213.397
215.448
227.638
217.903
216.673
216.88
215.52
217.799
216.152
221.412
234.912
216.82
215.876
224.235
226.123
216.921
216.402
216.999
215.753
216.877
216.628
225.019
219.919
215.955
224.21
219.75
223.764
230.864
217.163
220.369
215.959
225.4
215.539
227.638
237.672
216.377
216.261
221.78
215.381
245.838
216.451
224.108
217.231
215.875
216.78
217.069
220.216
216.717
240.136
224.398
236.536
216.592
216.004
223.968
232.467
217.398
215.477
222
236.053
217.016
217.812
225.635
216.068
216.818
215.699
215.763
218.397
220.305
216.481
219.584
215.625
230.895
216.164
231.522
213.439
217.141
215.735
219.969
232.889
217.65
215.381
222.186
218.264
216.167
221.959
222.933
216.594
216.837
216.99
215.85
218.33
220.642
215.91
215.463
229.157
228.815
216.907
218.133
216.768
226.783
216.861
215.437
224.643
226.918
216.533
225.139
219.564
215.622
238.438
227.221
216.645
216.595
217.05
232.781
214.651
219.683
229.092
217.343
217.964
239.765
217.024
215.159
217.491
231.546
215.996
228.059
218.737
215.593
217.306
228.764
215.435
222.844
222.958
218.245
217.449
220.893
215.825
224.3
227.865
216.926
229.055
217.187
215.234
216.794
222.747
216.093
216.559
215.366
217.09
225.502
215.75
218.395
227.785
216.874
219.969
215.486
216.994
216.383
215.569
216.029
216.772
221.059
214.305
216.192
216.31
215.538
226.747
227.429
217.032
217.334
215.603
217.125
220.54
220.281
215.728
219.412
216.942
216.196
215.77
217.108
215.8
220.054
215.59
218.42
213.634
217.008
227.595
213.413
216.936
218.68
216.849
216.065
228.006
225.301
221.273
215.649
228.147
216.445
226.277
216.985
215.962
217.064
215.987
216.867
216.923
222.893
219.483
216.203
215.586
215.418
223.318
217.165
216.778
217.248
228.261
215.65
215.461
219.786
229.027
216.365
219.203
218.115
223.918
218.356
215.244
217.21
216.589
216.63
224.626
232.389
219.457
215.727
215.505
218.443
215.37
215.412
234.376
230.133
227.336
227.915
215.901
232.485
217.05
215.654
230.172
236.993
216.055
216.902
220.877
215.711
216.501
217.268
222.211
215.542
221.187
217.022
217.169
215.97
220.206