# vtk DataFile Version 3.0
vtk output
ASCII
DATASET POLYDATA
POINTS 10000 float
-14.4215 -24.182 4.85741
-2.09377 -43.8636 11.7227
-8.22453 -40.4019 10.5972
-0.165976 -45.6257 14.5277
-2.97727 -44.0022 12.0839
-5.91696 -37.2563 13.7599
-14.2984 -27.0511 6.92581
9.13509 -48.6844 10.8694
3.60758 -46.5676 11.4154
-13.3766 -28.8934 7.83307
-12.6643 -31.0343 7.36069
-14.4843 -29.8822 8.26935
-3.40645 -42.2922 14.0416
1.93231 -47.2902 12.466
1.01656 -45.2145 13.6024
-6.84904 -42.8645 10.647
11.1751 -51.9655 8.35482
-4.55937 -40.135 13.0223
0.891867 -45.2212 12.0438
4.73661 -42.9927 13.1516
7.97082 -50.3677 6.6921
-3.76076 -41.6583 14.083
-0.543392 -44.5326 12.6285
-14.8941 -26.2688 5.61627
-13.2379 -30.5303 8.43594
-14.1385 -27.3619 5.13266
-2.31708 -46.5479 6.72413
2.50711 -47.2102 15.1141
-13.5999 -28.0323 7.58512
2.79792 -45.5192 12.3996
-14.672 -30.2578 5.62298
3.95758 -45.3644 11.6717
-14.3875 -25.8749 2.70472
-15.8743 -26.5953 6.63886
-5.28884 -44.9313 10.119
-0.0203057 -43.2391 12.6133
-13.106 -29.8096 7.86507
-2.18465 -45.8919 11.4856
2.36507 -47.1928 10.9587
-2.60956 -41.3691 13.171
4.72083 -49.0968 6.24759
-14.2726 -30.2109 6.22716
-1.72822 -41.6634 12.7716
-7.46415 -42.7869 10.373
0.00383833 -43.8405 11.9533
-8.56118 -41.415 9.999
-13.7956 -30.0401 8.11932
-7.36202 -42.5285 10.7348
3.21973 -45.3187 11.5709
-2.01234 -46.387 6.19903
2.18449 -43.4855 12.5958
6.49623 -49.9744 10.3456
-14.6025 -28.8868 8.01651
-14.6594 -29.7717 6.11234
-4.52856 -41.8175 12.963
8.16634 -50.5574 9.30037
0.890002 -45.7501 13.6035
-13.4572 -23.4751 4.48789
-12.4407 -35.1927 9.30281
-1.02995 -44.9744 11.2554
-12.7603 -33.9189 9.21454
-13.1225 -34.9761 9.1785
-13.0281 -25.4446 6.04409
-11.1674 -36.8373 9.58271
-15.494 -24.305 5.82887
-11.8332 -25.9664 7.1703
0.18868 -45.1336 15.6254
-12.4695 -33.6723 8.95024
-1.70066 -44.6843 17.8116
-1.85111 -43.6108 14.4591
3.54869 -47.5391 13.6768
-12.8861 -30.1451 6.4732
-0.605004 -43.6706 12.4293
-14.6834 -29.131 7.57137
-2.83384 -43.4119 14.4199
9.22125 -51.336 6.49436
1.14092 -45.8541 11.0224
-16.6028 -24.1507 3.21747
2.22525 -45.4449 11.3687
-11.1754 -37.0515 5.57425
13.9859 -52.1444 7.98531
-6.31568 -43.1124 6.06458
-13.2278 -34.4726 8.28545
-1.51172 -44.5636 12.9693
0.376459 -46.7788 10.9851
-2.15291 -41.7539 13.367
-14.3864 -28.494 7.90189
-9.59312 -39.7557 10.5044
-7.76613 -41.8629 6.61579
0.169002 -45.4693 14.1307
-15.7351 -27.7766 5.31691
-13.5751 -28.2067 7.07681
-3.15862 -41.4439 12.356
-7.68634 -41.7459 19.075
-14.5728 -27.3915 6.96413
-15.481 -25.9959 6.43894
-15.3654 -28.8993 5.42945
13.7492 -51.6682 8.14284
-11.0649 -37.9925 9.87625
-15.0972 -24.4959 3.95267
-14.4921 -29.0297 7.54753
-13.9235 -27.9601 6.9912
-15.6615 -26.3861 5.71415
-1.16991 -45.4779 11.1311
-12.9486 -33.4481 7.26575
-13.6282 -32.4526 6.68549
-3.98074 -41.2961 12.8818
-12.0422 -36.482 9.25584
-2.58073 -43.4557 12.5248
2.83382 -45.0812 11.6917
-13.3128 -28.8645 7.316
2.29685 -45.3323 12.0772
3.97749 -46.2008 12.6573
-0.48803 -45.5244 11.9031
-13.2681 -31.6394 8.50798
-0.914709 -46.2338 11.0529
3.91419 -49.2643 6.92666
-8.52755 -37.4184 10.8047
-14.6992 -25.3751 5.02549
-13.9241 -27.6223 7.53283
-2.2269 -42.1913 13.5486
5.51903 -48.6356 15.7918
-13.8265 -30.1067 8.15032
2.19838 -45.1059 12.9308
-14.644 -27.472 6.94449
9.21644 -51.4747 7.64749
3.13862 -47.7502 11.0478
-4.90957 -39.5475 13.4139
-14.5004 -26.59 6.17077
-12.6501 -31.4686 8.66347
-7.59063 -42.8497 9.47489
7.82203 -51.1433 7.251
-15.2305 -26.995 7.04222
-1.87263 -43.2221 12.2202
-4.39672 -42.9053 11.4047
16.3761 -53.3885 8.88828
-13.201 -34.0309 9.46242
0.875303 -45.3646 11.949
-0.597548 -43.4927 12.0765
-13.1427 -29.2453 6.85563
-0.209185 -45.025 10.9366
-9.9069 -38.7085 5.96666
-1.77959 -40.8535 13.0527
3.9056 -47.3443 16.8975
-12.4864 -35.1727 9.86201
-3.15338 -41.8566 14.2468
-13.6045 -26.5547 6.43317
-13.7634 -29.2852 6.99741
-14.6705 -23.3096 3.9794
-14.3267 -25.4655 3.09014
3.26 -43.0819 12.799
7.8967 -50.5914 6.54577
0.978492 -48.5152 5.57563
0.636322 -45.7273 15.1643
3.26295 -45.6197 12.4215
-10.8536 -36.5776 9.79989
-14.9289 -23.9677 3.60539
-12.2658 -34.9347 9.09219
-5.14728 -43.6552 10.7801
-2.63875 -44.5837 11.4563
-15.3035 -26.4092 5.07699
-1.25154 -42.6582 12.8166
13.7647 -52.4496 7.87094
-3.90854 -42.6607 12.0185
1.16498 -46.1029 14.5669
1.59699 -46.8405 14.7729
-14.0966 -25.5231 2.59126
-14.7003 -24.2207 4.70819
-8.87264 -40.1286 10.6185
-15.0547 -27.3046 5.62704
-13.4276 -29.5781 7.92245
23.1081 -53.2036 10.0662
4.40346 -48.2128 15.5028
5.41114 -48.5438 16.3535
-11.0688 -38.2147 10.154
-2.12488 -44.1069 11.812
-14.9275 -28.5435 6.10342
-15.1041 -28.3037 7.48451
-12.5608 -29.2427 7.8812
-15.3264 -25.38 5.39298
-13.3027 -31.6283 8.491
-14.9405 -27.225 5.40011
-12.1312 -29.5715 8.65997
-13.6682 -25.69 1.33625
-12.437 -35.2739 9.5449
-1.96447 -43.6579 12.2258
-12.4368 -29.9663 8.22063
-1.79526 -45.3977 10.9186
3.59981 -46.5733 11.634
-10.3241 -38.6807 10.0395
-12.5749 -35.0757 9.02971
-1.97034 -45.9598 10.6641
-8.07717 -42.9948 10.1321
3.68806 -47.0166 12.0164
7.39108 -49.2825 16.1058
-13.9654 -30.7687 8.24432
2.72372 -52.9299 7.49525
-1.75863 -43.5295 13.8028
-3.0864 -42.2604 12.7858
-13.0752 -32.5527 8.91444
-12.1895 -31.4752 7.32185
-0.807168 -43.5856 13.0959
-7.6641 -41.7883 6.48858
5.59196 -50.8389 6.07344
0.0839189 -43.2605 13.0309
1.15143 -42.5433 13.1886
-12.2566 -28.375 7.08756
-13.7612 -27.2262 7.34126
-12.6047 -28.4021 7.57908
3.95243 -47.9997 16.2798
-15.6324 -21.2695 3.1191
3.89182 -48.8632 5.80686
-14.7714 -25.8853 4.96441
-13.7136 -29.2631 7.13423
-13.7252 -32.1178 6.981
3.24401 -49.007 7.96884
-13.2061 -30.2409 7.93444
-13.3589 -32.3789 8.77383
-1.97288 -43.9311 12.2542
2.77031 -49.3037 6.97735
-2.79791 -44.929 11.8161
-3.4154 -45.0402 11.0476
-10.2135 -38.9602 7.11227
-13.5868 -31.0524 8.10725
-12.0465 -36.1142 9.91344
-11.9242 -28.6681 7.84506
-16.1407 -28.4171 5.22152
-10.8674 -38.6114 8.37264
-15.0755 -29.4696 7.29516
-10.3607 -39.1978 10.3502
0.453076 -43.5519 12.9779
-12.8967 -33.0198 8.83952
-12.2503 -30.8179 8.65032
4.81473 -49.826 8.79466
-15.2423 -27.3748 6.5608
-12.9398 -28.2904 6.26015
-12.6662 -34.7136 9.25543
3.62904 -48.2793 12.1277
-14.0654 -31.609 7.2718
0.893369 -48.8389 8.80848
-5.29319 -43.4951 10.7514
-3.09761 -45.4737 11.3566
-12.5521 -26.9614 4.04522
2.77443 -45.2543 11.992
-7.98902 -42.2389 9.97524
7.65397 -50.258 6.14165
-14.5271 -27.1153 6.40441
-7.99322 -42.3618 9.74907
-18.2561 -22.6851 3.02766
-12.1834 -31.7333 8.34596
-13.4535 -33.1395 8.96128
-14.699 -26.9003 5.13702
-9.89431 -39.5267 10.2262
-1.90643 -43.4935 12.0805
10.7617 -51.3582 6.72714
-16.389 -26.119 4.40098
-15.1857 -27.0712 6.53468
-2.92187 -43.0486 13.3984
1.56912 -46.0979 16.1984
0.343211 -48.2766 8.64535
25.4306 -52.174 10.0231
-13.9946 -29.7473 8.10068
6.076 -52.7605 7.91419
-3.66271 -42.0022 13.1851
-8.77928 -38.8287 10.7266
-12.0704 -33.2949 8.99858
-15.3596 -26.2052 4.95752
-4.48439 -41.7375 12.825
-3.94989 -45.6619 6.50147
-13.7437 -24.2653 5.48143
-13.8198 -22.3456 4.23007
-2.47609 -39.8202 13.3635
-13.1421 -25.8679 6.5986
0.972507 -44.5018 12.5526
-3.70146 -39.9358 13.0659
-13.4789 -30.0107 7.44798
12.2738 -50.7092 8.72209
-0.654889 -41.8564 12.7052
-15.6865 -27.4642 4.76993
-8.03794 -42.0905 7.68589
-14.1514 -28.7534 7.99065
-15.7994 -26.5281 4.29458
20.6859 -52.5562 8.83589
-3.44527 -43.1259 18.4668
-12.9337 -32.783 8.41292
-6.20915 -43.7457 10.0488
-3.26823 -43.156 13.7233
-2.45016 -44.0549 11.5523
-14.6114 -24.3843 5.06899
-1.85902 -45.132 11.1402
-13.2921 -30.1387 7.98781
-14.5869 -26.2815 2.98982
-6.53107 -43.8093 10.232
-2.96063 -42.329 13.7482
-12.7461 -30.0769 8.41267
13.0495 -51.4994 7.49812
-9.67314 -40.262 8.54447
-15.3047 -26.3784 5.31691
-12.1076 -31.2461 7.92342
-7.01216 -42.621 10.1348
2.6229 -50.5831 6.94075
-3.01596 -41.0407 12.8641
3.53767 -46.1306 11.9971
-1.64534 -44.3091 14.5739
-2.05505 -41.6144 12.8486
-4.91879 -41.4186 13.4429
14.3006 -50.4234 9.15494
-13.2726 -29.6366 7.97787
1.10307 -44.1129 12.9581
10.0132 -51.6583 8.04104
-14.9536 -30.0184 5.51734
0.257727 -45.4841 14.177
7.6206 -49.2919 14.113
-5.21726 -39.3539 12.0701
-12.9941 -32.9437 9.10452
-12.9517 -32.7849 8.48083
3.32252 -44.8781 12.4183
-1.05487 -43.43 12.9097
-15.0434 -25.9604 5.1281
-12.9649 -31.0152 8.27462
-13.7992 -28.7334 6.00708
0.019844 -43.9717 12.312
1.2331 -46.01 12.008
-0.761424 -44.6775 13.749
-14.3441 -25.4947 6.30695
-9.19839 -41.1323 9.88403
10.8156 -51.2901 7.54322
-12.9536 -31.552 8.4486
-11.2081 -37.1073 5.47181
-6.08052 -43.944 5.27555
2.76536 -47.3514 16.9705
0.664118 -46.0843 14.3989
-1.70017 -46.4001 11.1127
-15.4659 -26.3388 4.51541
-12.2595 -36.6389 9.26303
20.5649 -52.0069 9.19913
-3.79668 -40.6915 13.226
-13.6726 -26.7928 6.88434
12.757 -52.4883 8.54267
0.743282 -44.3349 11.8151
-13.9937 -31.0155 8.67174
11.7427 -50.4746 8.48048
-0.550024 -41.4946 13.1239
-11.6205 -34.1634 8.91019
-3.61534 -41.6955 13.1389
17.1956 -52.3465 9.77784
4.07769 -47.7865 16.3171
-5.04806 -40.1668 13.549
2.3695 -42.7468 12.8973
-13.8669 -29.126 8.07558
-12.6673 -26.7745 7.11553
-12.2906 -33.3386 8.89781
6.41083 -50.1049 6.76435
-2.31313 -45.6502 10.8748
2.1261 -45.8089 12.2366
-15.5578 -28.1276 6.88251
-13.621 -26.0987 5.49399
-13.1981 -30.531 7.77778
-14.7671 -27.7723 7.2588
-14.3793 -29.8947 7.29519
-12.6039 -31.1823 8.17286
6.82645 -37.1973 26.885
-12.7078 -28.9667 8.14141
1.90817 -46.4346 15.8647
2.32601 -51.6899 7.34017
-14.0473 -25.1718 0.370483
4.85508 -48.252 15.4646
-7.53727 -42.2463 11.0252
-15.0431 -28.0961 6.84288
0.85389 -45.8698 14.097
-5.41051 -44.2246 10.0956
-1.23511 -42.104 12.9303
-14.0329 -24.5036 0.721445
2.05103 -47.4087 11.6015
13.9636 -51.9935 8.74433
1.52832 -46.1388 17.5832
-13.5628 -29.0348 7.34468
2.95539 -47.657 12.2896
3.22217 -47.3832 15.3152
0.744845 -43.2475 13.6725
5.41089 -47.1418 11.507
-14.5442 -26.0289 1.26738
5.04739 -48.546 14.8911
-13.8023 -27.037 6.38046
-3.89311 -43.3895 18.112
-2.85197 -42.4724 14.2989
6.24625 -46.4416 12.2922
-15.2581 -28.6089 7.54681
-12.5292 -35.3717 9.34483
[...]
POINT_DATA 10000
SCALARS t float 1
LOOKUP_TABLE default
255.913
211.012
213.901
213.619
212.132
215.488
237.474
212.197
210.283
230.494
234.065
227.187
213.856
212.901
213.098
213.734
221.946
213.03
210.416
210.461
234.757
214.095
211.501
248.244
226.525
252.448
236.601
212.606
232.444
210.571
248.094
208.823
270.565
240.266
214.364
210.629
230.172
211.906
210.856
212.429
238.861
242.846
211.269
214.919
209.662
216.218
228.4
213.888
209.138
240.968
209.998
214.05
229.16
243.878
213.269
217.993
213.264
259.807
221.244
210.931
222.145
221.526
246.143
219.273
249.718
238.164
212.831
223.62
211.945
213.736
213.292
241.019
210.791
231.978
213.869
235.826
210.67
269.68
209.788
247.256
224.534
241.81
226.967
212.49
210.983
212.658
230.113
215.374
237.541
213.487
251.302
235.865
211.244
212.184
237.058
242.218
250.031
223.979
217.749
263.393
232.221
236.568
247.861
211.04
234.838
239.087
212.649
221.052
212.167
208.926
234.058
209.962
211.222
211.295
226.146
211.103
233.565
212.711
253.515
233.076
212.988
211.192
228.189
211.538
237.175
226.779
211.295
213.965
243.51
225.293
218.4
229.532
236.766
211.075
211.401
218.617
220.86
210.386
210.052
237.628
210.736
243.858
211.859
210.599
218.914
214.041
241.582
236.406
263.73
268.812
210.128
235.586
242.752
213.149
210.547
217.981
266.426
222.452
212.137
211.469
253.209
211.405
225.049
211.827
213.44
213.255
271.534
256.991
214.504
248.212
229.791
218.255
211.632
210.68
216.846
211.319
244.005
232.852
230.216
250.699
226.234
250.173
225.486
279.662
220.167
211.432
227.893
210.936
210.165
216.702
222.702
211.507
215.841
211.172
210.728
227.456
224.368
213.191
212.303
223.92
234.595
212.021
238.627
237.906
211.55
211.459
236.323
234.706
232.548
210.967
271.895
241.959
253.99
235.338
236.723
226.665
229.718
224.644
211.644
232.635
212.07
211.503
235.049
228.559
218.316
230.898
252.388
226.059
233.998
216.13
211.428
224.353
225.216
220.548
240.346
242.644
221.674
213.089
234.289
220.466
212.27
211.92
262.3
209.572
216.126
238.922
241.433
217.215
273.325
227.162
223.424
252.465
216.168
211.078
234.359
259.873
240.603
213.094
211.808
221.907
219.11
228.522
222.581
213.06
213.485
223.241
254.296
213.058
238.017
251.715
263.118
212.921
241.629
210.774
212.683
233.061
221.972
210.691
256.023
230.068
229.536
260.223
221.899
212.091
226.847
214.912
213.515
211.221
254.11
211.119
229.354
268.704
214.732
213.424
226.674
228.504
224.704
251.097
230.039
214.992
230.454
211.978
210.117
213.769
211.578
213.963
220.759
229.452
211.444
224.087
249.046
213.494
212.449
211.293
222.862
226.417
210.074
211.742
252.606
227.574
244.727
210.418
210.869
213.221
243.576
217.105
228.249
226.518
247.952
247.274
210.718
213.51
211.484
258.242
220.791
221.185
213.036
238.131
220.529
209.339
224.983
223.572
211.705
223.601
212.917
217.018
210.922
214.203
210.433
228.892
237.077
223.912
233.999
211.005
210.679
237.601
249.376
230.8
234.748
234.064
228.283
212.865
228.7
211.954
226.236
286.259
211.6
213.627
237.853
213.476
214.367
211.493
284.749
211.698
220.2
211.126
233.781
212.728
212.15
212.847
210.421
279.411
212.185
241.602
212.236
213.906
209.818
232.202
220.958
221.297
211.901
208.009
221.069
216.389
212.621
210.409
212.785
243.408
211.147
211.569
212.153
219.99
229.109
231.873
252.888
211.013
227.072
238.234
220.293
211.467
217.443
210.601
275.806
211.203
228.858
237.929
215.01
233.299
213.439
235.677
235.13
222.926
240.029
212.572
269.616
219.004
235.513
238.35
275.27
210.998
245.791
254.585
224.197
221.118
219.918
249.416
234.182
243.794
211.019
239.3
213.79
227.993
235.765
210.207
216.963
232.931
238.964
211.356
237.889
212.48
230.274
228.595
211.983
240.442
249.161
210.022
229.626
208.958
213.342
209.219
222.425
236.215
212.306
252.554
274.125
252.942
224.383
209.846
213.48
214.836
221.819
213.918
225.189
223.974
234.519
223.327
225.204
214.552
272.26
245.235
210.539
230.139
212.219
217.013
211.941
245.608
223.689
211.407
213.284
232.831
235.578
240.219
239.163
212.826
238.41
211.831
211.357
230.771
238.711
244.954
246.732
210.923
224.16
250.06
210.983
217.596
211.091
209.983
242.371
213.128
214.581
237.719
213.82
241.223
246.333
228.208
211.479
231.672
213.474
210.429
210.709
235.805
260.838
213.645
231.237
211.366
213.161
219.106
245.77
230.804
212.638
225.911
243.256
239.444
213.255
211.521
248.158
215.428
231.558
220.682
235.245
225.937
212.771
219.4
242.003
210.635
239.186
220.311
248.221
225.345
245.869
256.674
236.773
212.277
233.126
232.46
213.421
237.367
209.933
211.256
213.364
211.166
221.867
211.542
211.71
239.832
225.3
252.364
212.197
226.52
232.543
243.977
218.769
235.785
211.135
212.737
210.965
212.436
223.426
210.448
240.354
213.127
211.95
213.894
210.103
246.736
242.049
228.024
246.963
221.727
280.187
212.473
213.332
213.039
247.968
223.456
215.257
272.39
239.347
211.462
234.414
211.047
227.288
233.644
211.924
265.833
229.309
237.891
214.791
216.231
212.423
212.897
211.841
232.534
228.22
211.131
212.753
220.082
211.425
220.124
237.026
211.067
216.415
233.675
212.157
212.892
229.68
211.308
237.322
257.118
227.124
226.905
222.152
213.79
213.335
262.233
227.455
221.891
212.671
233.99
212.098
223.205
214.96
211.363
240.579
230.477
241.056
210.339
209.701
213.621
211.273
210.715
245.293
227.742
259.715
234.513
247.435
274.009
228.388
225.934
212.774
232.435
239.324
224.736
221.025
224.905
229.916
227.839
211.419
211.624
232.678
211.634
236.237
236.112
211.986
210.384
213.61
209.775
211.486
211.099
210.073
211.588
253.2
211.243
228.224
259.735
211.713
213.543
234.362
250.929
211.354
219.378
211.623
239.258
216.615
232.25
227.37
242.536
221.842
224.06
233.37
210.493
238.046
219.03
211.551
253.705
211.017
212.515
211.452
249.77
252.647
210.872
232.112
211.576
229.43
244.118
211.119
231.929
212.773
210.904
230.432
210.682
212.499
209.311
236.302
231.784
245.305
211.014
210.89
239.717
214.714
223.051
212.168
225.079
249.332
231.035
211.084
269.847
211.128
231.365
236.269
250.741
237.138
246.942
240.376
213.814
231.089
230.35
212.344
212.429
228.468
213.546
210.811
216.365
210.403
241.632
247.846
239.607
211.376
218.348
246.841
231.555
231.04
226.095
226.441
238.925
245.822
245.958
219.924
240.616
235.783
224.212
211.467
211.214
240.083
212.271
258.212
249.208
208.988
229.868
244.589
211.747
234.081
211.58
213.136
224.934
242.959
233.423
213.92
211.632
222.842
228.018
245.679
229.6
219.169
229.896
225.925
257.313
274.997
227.029
211.064
247.129
214.492
212.319
213.32
221.502
216.846
220.965
215.552
208.99
229.787
211.767
231.577
211.818
214.088
246.481
239.632
260.388
270.632
237.696
269.017
209.982
243.398
236.03
249.127
235.357
211.965
227.904
227.197
210.864
229.214
210.682
218.404
212.811
275.788
246.175
211.431
227.268
218.028
213.105
251.525
211.157
247.036
226.818
229.04
213.879
231.981
269.872
225.826
211.702
210.779
231.337
238.746
237.83
216.54
211.272
215.684
212.352
220.367
228.183
227.531
232.087
212.251
210.058
225.659
213.119
242.62
237.746
211.453
267.87
210.95
211.827
211.206
209.179
242.324
234.141
225.819
213.442
209.547
238.454
213.336
219.047
275.889
216.926
212.427
247.461
212.619
234.143
210.896
211.022
251.783
246.935
212.385
211.953
244.623
236.164
210.617
233.024
238.721
233.338
218.319
215.381
211.708
217.461
211.396
217.864
212.748
236.423
212.005
212.26
212.223
218.758
212.402
218.157
210.862
237.461
239.415
210.3
211.422
212.274
217.011
211.465
222.296
220.942
211.117
219.072
219.098
227.444
213.687
213.079
250.348
229.696
212.657
271.312
211.076
243.962
213.688
249.315
227.031
238.58
213.585
258.434
211.552
214.369
222.235
233.949
241.129
210.922
228.099
221.441
211.525
213.396
237.376
231.3
246.201
236.134
211.393
238.349
211.303
211.334
220.618
231.535
207.996
228.347
263.207
246.364
211.963
211.232
210.171
212.193
260.997
210.79
236.324
211.636
234.799
258.822
223.529
211.05
239.299
214.327
211.602
212.759
225.207
213.328
211.729
211.805
218.449
228.26
233.098
210.279
213.075
212.067
252.647
239.681
210.283
232.85
229.208
211.541
212.26
235.265
213.093
213.615
214.406
212.165
239.019
223.378
234.956
239.967
212.492
233.22
211.458
221.49
231.535
243.263
224.433
212.125
211.342
212.361
243.056
266.278
220.361
233.91
213.53
220.679
220.416
211.822
224.85
210.679
213.697
215.216
237.626
211.677
228.157
212.995
235.979
261.552
213.538
208.319
237.989
245.195
229.611
255.403
245.692
236.735
245.608
258.381
239.823
226.019
241.725
211.015
212.823
236.882
236.121
235.651
262.376
279.096
234.949
227.702
244.801
211.822
213.439
222.804
250.971
232.184
211.543
215.481
209.89
243.565
212.208
230.785
286.906
211.458
235.774
219.425
213.696
209.813
266.16
237.292
263.457
208.994
216.251
227.984
233.422
216.211
250.42
232.915
214.848
232.578
211.81
227.012
231.864
263.403
211.503
269.42
245.072
211.851
238.095
244.781
211.165
209.877
226.123
211.226
246.058
213.441
246.697
212.89
245.95
273.021
233.98
247.253
210.588
214.715
283.842
249.075
211.428
211.235
239.594
212.801
231.777
211.474
237.316
229.753
231.641
216.567
238.905
219.663
256.08
210.951
211.869
212.785
211.535
235.094
212.454
213.428
210.368
225.7
228.723
254.092
218.825
224.036
247.576
212.956
216.761
210.721
236.397
218.671
212.953
235.098
226.122
210.992
227.458
211.186
229.342
214.326
219.73
211.426
222.151
220.816
210.52
212.511
234.794
221.969
233.02
222.326
266.121
229.477
223.314
212.812
232.833
212.906
236.645
227.706
221.496
219.159
226.671
215.608
249.038
227.155
238.093
223.516
244.504
211.626
211.45
209.719
210.269
244.691
211.026
239.332
243.831
222.917
211.304
219.579
232.661
211.323
211.055
209.863
236.376
223.688
232.018
212.833
215.039
211.511
229.936
227.982
251.011
211.716
239.228
229.52
208.981
239.207
221.293
236.466
231.156
213.551
243.798
236.296
223.742
213.33
209.581
222.029
232.25
213.98
220.567
214.752
213.186
239.386
212.999
230.661
228.506
270.355
233.195
212.116
232.95
243.594
235.614
213.413
212.969
224.948
274.626
211.494
211.046
226.317
239.479
216.219
237.588
219.38
230.709
215.261
231.648
228.984
265.848
212.121
224.721
229.201
210.669
213.272
279.273
237.348
211.122
213.718
213.044
211.054
266.731
247.643
212.024
214.614
212.147
219.477
214.401
211.928
213.095
268.07
222.409
240.233
213.015
211.974
252.323
212.999
213.358
211.857
212.969
212.342
241.557
242.811
214.225
227.639
210.19
211.643
210.704
246.75
215.462
213.176
211.756
228.278
249.378
211.672
221.727
223.19
212.13
212.914
238.999
231.498
225.298
262.832
226.041
227.752
210.416
229.629
237.172
261.113
209.932
212.229
261.456
210.744
231.602
223.887
209.894
210.37
211.773
274.608
217.718
240.508
213.23
225.841
232.012
225.611
252.537
271.432
214.386
213.358
214.299
212.3
240.244
230.007
220.471
245.024
210.324
228.795
211.241
229.748
226.195
228.017
226.437
211.816
211.274
237.654
216.414
210.921
213.159
216.811
212.698
230.141
209.17
232.69
212.546
223.558
227.992
227.22
216.087
217.325
242.576
250.763
230.796
211.636
256.01
211.953
236.536
213.023
233.152
218.955
232.304
209.489
213.532
212.499
215.485
218.313
229.729
212.359
210.154
228.099
220.034
230.23
214.311
210.565
213.333
224.513
225.76
256.556
210.864
217.359
227.066
224.457
230.67
237.901
217.504
264.486
229.281
231.81
211.651
233.637
230.76
242.902
219.474
247.71
236.528
211.595
217.959
234.93
229.274
243.824
210.755
237.468
223.778
210.993
238.68
211.824
241.932
262.454
265.791
213.662
210.66
210.406
235.019
211.405
225.879
210.628
211.918
213.913
213.388
267.653
235.414
212.36
210.113
211.75
223.788
246.536
232.313
210.832
210.722
215.142
224.164
220.571
233.751
214.132
210.728
210.312
239.065
211.864
225.211
222.738
227.164
212.892
211.279
242.506
282.362
211.989
213.619
250.524
212.117
252.093
212.152
257.013
245.821
210.67
220.186
244.995
246.615
215.429
227.75
213.364
228.631
245.748
226.407
213.4
210.96
220.937
209.691
248.065
236.824
212.119
248.264
234.718
209.614
212.032
211.602
214.037
214.202
232.739
212.923
243.024
225.567
230.253
212.592
220.933
209.429
219.14
211.247
279.13
226.163
212.571
215.925
210.806
275.442
255.908
211.495
211.312
236.317
222.939
238.61
211.613
211.652
224.076
226.086
230.09
236.84
212.196
212.881
213.452
240.342
218.792
269.541
214.097
252.642
227.954
224.279
222.281
240.051
217.532
240.889
212.122
224.343
226.608
211.021
216.211
227.199
258.434
230.207
248.132
235.95
225.205
210.938
213.996
252.497
251.71
221.533
231.101
209.275
219.388
233.301
212.049
242.423
227.49
234.324
225.104
210.586
232.536
257.183
256.188
211.828
222.932
212.052
210.308
223.961
214.216
243.492
228.615
211.971
267.982
241.111
215.15
249.819
213.7
234.024
225.858
212.826
251.911
235.747
211.488
213.663
226.484
209.635
231.267
245.6
209.857
240.511
209.828
252.089
213.274
213.036
253.521
241.239
211.253
229.444
239.862
211.954
266.072
244.138
211.372
233.56
212.036
210.399
216.746
228.606
208.893
225.54
211.875
226.951
237.283
227.3
257.068
233.483
237.822
219.179
250.21
237.866
212.385
233.362
233.763
217.183
246.956
222.637
223.408
247.048
226.484
221.308
212.274
244.491
239.778
233.707
232.015
229.751
213.514
209.314
211.723
211.181
217.03
229.091
236.967
213.41
213.592
213.256
221.301
234.183
219.135
229.774
211.597
227.481
226.497
217.743
211.053
224.63
224.524
224.065
231.822
230.358
228.737
212.205
211.908
227.148
228.189
210.413
286.483
229.911
211.853
220.455
288.503
235.704
231.247
210.436
227.654
227.852
241.938
264.853
230.639
213.305
210.998
284.156
209.851
211.202
214.774
243.741
239.828
239.441
225.66
228.107
211.197
223.064
227.231
216.668
256.781
235.889
229.637
257.402
220.697
212.857
214.588
217.884
215.443
252.495
235.134
220.192
231.393
240
258.725
213.377
214.555
221.479
210.941
211.474
237.999
215.295
231.342
210.613
211.757
229.169
211.801
208.71
224.399
240.357
241.375
237.143
227.847
277.214
210.323
217.668
214.625
238.192
210.001
251.927
239.211
240.608
237.15
229.501
217.464
214.363
223.075
230.409
214.79
214.58
230.907
211.926
212.371
241.86
254.66
232.925
212.827
213.255
213.466
238.887
246.245
234.921
218.685
233.122
216.622
230.526
209.814
212.005
223.359
211.524
224.22
231.546
209.939
213.801
210.795
222.84
213.538
219.518
212.123
223.288
267.329
208.535
212.074
241.493
212.045
211.497
247.117
232.609
269.449
242.151
211.407
248.156
211.069
239.957
227.826
227.24
218.879
210.957
234.944
217.846
263.038
211.749
211.991
257.823
231.061
219.383
210.485
212.933
209.653
212.206
240.859
238.443
224.684
247.032
229.532
211.781
211.352
236.973
239.905
211.459
263.214
220.58
212.797
238.722
212.305
210.816
241.385
230.894
291.576
217.079
239.302
221.935
217.404
233.466
237.554
239.732
284.905
231.677
244.955
212.553
213.398
231.688
228.484
247.579
235.01
237.719
215.502
212.462
220.884
222.309
225.775
212.812
242.202
210.62
211.09
218.967
212.139
231.921
211.976
222.745
221.334
212.716
212.272
212.006
232.192
210.857
211.038
218.621
226.967
246.097
210.229
235.113
251.646
215.2
212.447
212.826
224.032
254.677
227.239
211.963
253.794
216.736
252.139
218.011
240.09
225.1
231.266
234.821
236.57
211.12
210.84
227.072
211.281
211.78
211.189
215.974
227.183
246.261
233.442
230.198
223.485
212.099
252.165
214.936
226.249
213.363
239.517
211.274
230.131
220.145
210.877
221.615
211.872
241.78
211.065
213.51
220.907
241.52
211.822
261.841
213.715
229.274
211.327
212.101
239.034
246.871
225.919
225.679
225.483
218.897
214.089
209.625
228.265
244.871
245.288
227.369
240.684
235.454
245.154
238.865
218.247
276.812
224.969
257.13
234.946
210.218
237.072
229.577
214.853
211.191
219.193
230.149
229.956
225.338
219.534
239.542
252.275
240.948
211.301
218.976
229.354
248.746
208.479
231.395
219.008
239.257
265.588
229.934
223.37
212.035
210.583
233.258
213.088
240.76
235.555
248.715
210.591
233.415
212.817
210.551
242.671
241.665
226.044
239.991
212.608
244.619
226.219
233.195
211.32
217.91
213.826
225.591
227.03
213.275
231.125
213.707
225.098
214.584
213.575
227.463
209.701
263.983
210.829
234.121
272.783
234.671
238.803
266.232
214.902
224.946
212.065
239.16
223.15
224.68
213.552
210.071
227.412
236.75
241.615
247.104
232.223
225.908
213.237
213.192
274.922
209.635
224.62
250.573
210.957
211.553
239.26
226.675
249.363
241.184
224.681
212.03
235.517
219.066
236.014
231.202
232.716
213.493
229.403
211.878
210.456
213.97
222.258
234.289
214.278
212.2
212.864
252.176
212.583
269.841
230.467
230.44
212.297
236.109
233.22
226.713
269.983
216.742
216.839
240.549
211.388
225.619
226.619
235.16
213.44
215.298
213.87
238.295
218.632
215.468
211.627
213.788
256.97
213.878
247.329
215.449
249.117
210.389
225.029
243.815
220.304
283.137
238.624
233.211
209.858
215.952
266.211
239.212
213.994
227.402
211.259
224.958
213.122
231.13
212.98
215.494
243.88
239.29
211.92
209.872
210.159
211.632
229.544
211.927
219.091
231.454
211.46
215.882
218.224
269.167
211.281
211.133
220.62
244.18
235.172
232.228
237.962
210.385
245.443
216.381
228.837
211.24
211.271
251.057
211.469
212.135
241.76
225.421
223.766
235.461
223.281
209.808
215.823
211.025
228.102
210.892
210.459
255.062
237.671
227.25
264.007
225.957
239.76
211.703
211.018
212.952
210.428
212.565
234.04
233.052
239.712
210.511
214.014
214.924
214.743
227.13
211.749
211.451
214.916
211.064
227.031
242.096
221.522
211.024
237.752
210.115
236.323
231.69
211.054
211.074
237.343
215.148
224.83
211.92
236.627
255.454
220.446
240.703
224.129
226.018
242.302
210.234
242.05
240.751
207.954
247.975
261.903
232.488
245.681
212.195
242.105
213.849
212.671
212.285
221.252
256.969
221.022
212.305
253.741
249.96
218.336
242.859
213.515
284.287
211.15
224.231
217.279
245.688
246.224
224.21
210.966
226.855
234.258
209.448
215.16
211.982
231.227
218.956
231.147
235.21
232.355
228.611
274.508
231.671
209.246
211.188
219.65
240.576
210.915
235.391
227.905
252.647
240.826
213.511
232.686
212.165
212.719
230.915
264.04
222.85
219.487
239.5
241.307
218.485
212.985
238.264
252.709
218.539
233.23
212.425
212.822
215.667
243.163
211.357
231.431
210.217
276.455
245.535
213.465
231.662
271.621
222.837
212.996
211.097
208.877
213.386
229.086
230.14
232.95
212.362
231.362
230.3
236.454
241.724
218.99
211.83
251.13
210.961
230.708
240.337
213.6
235.233
238.199
211.777
209.904
278.482
237.367
211.794
213.152
222.437
219.526
220.179
243.43
229.264
210.899
210.903
241.471
245.331
210.21
218.344
210.696
211.661
210.125
211.581
240.804
233.045
216.61
253.527
217.299
242.42
248.192
212.385
246.857
213.762
249.519
226.902
258.746
241.193
210.338
224.922
244.58
212.766
231.102
210.688
232.895
229.269
211.554
216.811
213.212
237.488
211.746
239.753
255.726
236.487
213.577
225.243
222.556
259.852
213.704
216.621
216.321
255.807
212.014
230.998
238.394
224.196
210.223
211.365
215.554
232.492
284.878
213.776
237.704
211.261
233.56
239.637
247.027
212.244
225.249
212.095
230.705
239.772
235.372
213.135
250.85
226.539
218.368
220.3
223.294
211.806
212.395
213.243
211.154
239.256
235.49
210.996
220.855
248.167
221.931
210.863
232.062
213.432
241.654
213.525
226.186
288.182
230.026
211.116
243.13
236.573
211.555
251.541
259.69
211.068
212.065
213.972
222.644
213.358
240.029
255.604
213.539
232.124
240.652
213.739
223.434
216.038
245.601
228.195
227.928
229.647
217.727
213.452
222.606
211.397
232.296
244.298
231.023
213.398
232.472
212.721
235.929
222.152
212.487
239.527
213.669
211.602
232.4
236.948
211.314
230.745
226.193
211.404
251.322
222.727
216.87
247.965
213.668
230.15
213.595
212.864
227.599
210.54
211.05
210.457
244.309
210.747
215.567
211.993
212.349
238.679
241.531
212.576
213.529
212.11
224.985
230.799
228.243
217.969
225.599
212.311
210.842
212.071
224.58
210.921
227.166
221.372
234.992
212.646
213.124
241.545
212.244
212.671
238.135
211.071
209.792
225.193
235.28
239.158
217.154
253.438
210.777
226.951
212.02
212.135
217.547
213.319
212.552
211.542
217.727
239.916
210.508
221.513
213.79
238.21
213.969
225.508
211.399
223.29
210.72
228.067
237.476
231.01
216.506
228.28
230.219
247.441
232.25
216.102
223.393
230.386
209.53
216.142
262.079
236.456
212.605
211.357
216.498
217.857
216.643
225.364
238.097
225.869
237.149
218.093
258.36
212.352
210.936
247.548
225.513
212.697
209.839
244.211
225.08
210.517
227.242
242.534
211.527
231.854