# vtk DataFile Version 3.0
vtk output
ASCII
DATASET POLYDATA
POINTS 10000 float
-43.4988 -42.177 8.68489
-41.6084 -38.9318 12.3442
-41.8538 -40.9529 10.5411
-46.3525 -38.6915 14.9744
-41.0752 -38.8565 11.2835
-45.8653 -39.0863 14.3894
-42.2689 -40.9682 9.5541
-41.6485 -38.5071 11.3132
-42.1578 -38.4375 11.0476
-42.7779 -42.7444 9.98929
-42.785 -41.9469 9.30456
-41.8615 -41.7587 9.98238
-45.8189 -39.3195 14.4194
-40.8719 -37.9951 12.1352
-42.5723 -38.4333 13.6695
-40.6019 -37.6344 11.2044
-42.797 -42.6339 9.02063
-44.4226 -38.7718 14.1613
-40.7975 -38.4113 11.2487
-41.3201 -37.659 11.7983
-46.6864 -43.2298 7.96528
-45.4232 -39.2647 14.4146
-41.9096 -38.5368 12.6044
-43.5891 -42.1898 8.75142
-42.8448 -42.7186 9.98607
-42.7766 -41.8886 8.61324
-45.0958 -43.3017 8.47856
-47.6998 -38.9452 15.4631
-43.402 -41.7314 9.68141
-41.2089 -38.8345 12.674
-45.2581 -42.7765 8.0273
-41.2282 -38.5787 11.0804
-43.449 -42.0017 9.51482
-42.5545 -41.0728 9.59397
-40.7636 -37.1449 10.8041
-41.7615 -38.8599 12.7309
-42.2829 -41.9048 9.94553
-41.4041 -39.4275 12.183
-40.71 -39.1624 11.3764
-42.1668 -39.6622 12.8466
-44.7018 -43.7483 8.4338
-44.1547 -42.3026 8.64067
-41.631 -39.8888 11.7831
-42.0312 -39.8012 11.526
-41.0819 -40.1164 11.0078
-41.3307 -40.9535 10.7798
-41.8326 -39.9149 10.7532
-42.0863 -40.1692 10.8171
-40.8713 -37.0564 11.5963
-44.4269 -42.5863 8.19163
-40.7784 -38.2793 12.4989
-43.0499 -42.3988 10.1927
-42.4339 -41.4017 9.97873
-43.8909 -42.7616 8.85036
-41.8563 -38.9383 12.9216
-43.6888 -43.3421 9.41354
-43.6038 -38.6077 13.8161
-43.401 -42.077 8.50521
-43.0846 -42.9956 9.7533
-40.6776 -37.2083 11.0642
-42.2259 -42.1245 9.9704
-43.1231 -41.3465 10.075
-42.6516 -40.5719 8.9696
-41.8639 -41.1413 10.5961
-42.4028 -41.0996 10.0113
-43.0584 -42.4289 9.22926
-47.9198 -38.9115 15.6302
-41.8793 -40.9109 10.52
-51.7651 -38.9354 18.156
-46.6029 -39.4313 14.7395
-42.4443 -38.6563 13.5173
-42.7565 -42.0964 8.98337
-41.5539 -39.0402 12.9371
-42.5551 -42.5273 9.20776
-46.3824 -38.8667 14.744
-46.0084 -43.7262 7.98373
-40.684 -38.7483 11.4652
-46.1727 -42.2391 7.96255
-42.1275 -39.1923 11.733
-47.5084 -43.4024 7.57844
-42.4871 -42.0858 8.56864
-46.2695 -43.2253 7.66353
-42.367 -41.6559 10.1232
-41.6087 -39.2521 12.9112
-40.8864 -37.505 11.0006
-43.9588 -38.5889 13.811
-42.5732 -42.8398 10.082
-41.9998 -40.2739 10.6115
-44.2896 -43.1738 8.74839
-44.8119 -39.1578 14.0527
-43.8764 -41.6217 8.6136
-43.6718 -41.9958 9.89464
-41.2253 -39.3124 11.9776
-53.4676 -39.0946 19.2415
-44.1466 -42.8069 9.54295
-42.2153 -41.0567 10.183
-44.2983 -42.4918 8.07566
-45.1449 -43.8565 8.59974
-40.9986 -37.2232 10.7585
-44.4125 -42.4061 8.29755
-41.8786 -42.4474 9.50498
-42.2436 -42.4555 9.4039
-43.4318 -42.4281 8.71853
-41.6765 -39.1997 11.63
-43.9365 -43.9529 9.07651
-42.6241 -43.8179 9.22022
-41.7922 -38.7392 13.2653
-41.2263 -38.5513 11.1231
-42.3766 -39.7087 11.9403
-40.8887 -38.2987 12.637
-42.1856 -42.3982 10.1503
-41.2076 -37.7312 11.7895
-40.4934 -37.8468 12.2577
-42.0832 -39.0553 12.0617
-42.3837 -41.8945 10.2645
-41.2551 -39.1115 10.956
-43.5554 -43.2483 8.58074
-42.0413 -41.895 10.4096
-41.202 -40.6918 9.23055
-42.2071 -40.4288 10.1269
-43.037 -38.1415 13.647
-48.6425 -39.2892 15.6305
-42.0012 -41.0355 10.6232
-41.2747 -37.831 11.7062
-42.5226 -41.715 9.99306
-44.4274 -43.5418 8.5029
-41.2736 -39.1693 11.2478
-45.3503 -39.3056 14.1762
-44.3888 -41.2871 9.72276
-43.5313 -41.6947 10.1094
-41.3325 -39.5077 10.4593
-45.2513 -43.9781 8.02391
-43.1233 -41.6228 9.43702
-41.3664 -39.3486 11.5794
-41.6877 -39.533 10.8047
-43.3882 -42.9157 8.78092
-42.5493 -42.319 10.4035
-40.9724 -38.1342 11.1903
-41.4535 -38.7099 11.6616
-42.1172 -41.6138 9.503
-41.5181 -41.3117 10.7778
-48.9902 -43.5605 7.88918
-41.8348 -38.6834 13.0244
-48.328 -39.1014 16.8879
-42.7643 -40.6933 10.2882
-45.8827 -39.1847 14.5872
-42.7345 -41.8564 9.32155
-44.187 -43.478 8.5723
-43.1963 -41.8332 8.5995
-42.66 -42.997 8.84926
-41.5706 -38.9784 12.6327
-45.8187 -43.0139 7.80828
-48.6787 -42.7886 7.01645
-47.7491 -38.7238 15.4299
-40.5639 -36.7566 11.2927
-42.1648 -40.0012 10.5359
-44.7406 -42.119 8.30855
-41.658 -40.4976 10.4783
-42.4559 -40.4384 10.5289
-40.808 -36.7861 11.3401
-42.6032 -41.1917 9.43939
-41.1241 -39.3971 11.741
-45.954 -43.3046 8.4259
-42.5966 -39.3116 12.1744
-45.3636 -39.2251 14.1262
-47.0694 -39.397 15.1377
-42.0559 -41.2491 9.44301
-43.809 -42.8244 8.812
-41.8514 -41.4413 11.1354
-43.6909 -43.3197 8.75687
-42.1757 -40.1775 10.1599
-41.6664 -43.1619 9.65177
-48.156 -39.2247 15.7308
-49.6884 -39.4834 16.8446
-42.1144 -42.0029 10.7213
-41.6823 -39.3709 11.8983
-42.6114 -42.335 9.38836
-42.5033 -40.9831 10.3288
-41.7108 -41.6819 10.0288
-42.8552 -42.3062 9.55827
-42.0768 -40.6233 10.579
-41.8558 -39.267 9.95457
-42.8904 -41.8967 9.53947
-43.5327 -42.3813 9.21163
-42.6603 -41.1238 10.3491
-41.5024 -38.5353 11.883
-42.5046 -41.6997 10.1425
-40.7991 -37.7707 11.4687
-41.2683 -38.386 12.9994
-43.1975 -40.8684 10.2408
-41.0386 -41.0298 10.2461
-41.4295 -38.6039 10.9622
-42.1665 -40.4951 10.6284
-40.7771 -38.5786 11.9338
-48.8223 -39.3712 16.2269
-42.1862 -40.3872 10.6791
-49.1876 -43.7566 7.00401
-44.8874 -38.8682 14.1879
-42.1621 -39.9968 12.0375
-42.4609 -41.2474 10.1307
-42.6746 -41.7473 9.45297
-41.3716 -40.1015 12.2968
-43.799 -42.5596 8.69743
-45.9491 -43.61 7.79148
-41.4335 -37.6646 11.9849
-40.2243 -37.1738 11.1589
-42.5717 -41.7712 9.2629
-42.6611 -40.5806 9.87555
-42.9324 -41.282 9.69855
-49.4903 -39.2777 16.2978
-43.3679 -41.1678 8.21885
-45.6514 -43.3541 7.84962
-42.4822 -41.9665 9.59849
-41.9548 -41.8335 9.69931
-42.0805 -42.1251 9.09317
-44.0164 -43.0212 8.94474
-41.6655 -39.9671 9.94619
-42.7049 -42.1016 10.4186
-41.4799 -40.6643 11.4134
-44.1958 -43.6671 8.70077
-40.9322 -38.1502 11.6969
-40.3113 -37.3117 11.072
-43.0575 -43.337 9.1652
-41.1951 -39.7979 10.9527
-41.4263 -40.1518 10.7766
-42.0435 -41.6124 9.38445
-45.0476 -42.8329 8.04362
-42.5519 -41.714 9.64433
-42.7309 -41.8313 10.0285
-41.4181 -39.6975 10.7386
-41.4758 -38.4744 12.9449
-41.7431 -40.2898 10.4603
-42.2858 -42.705 10.3231
-42.955 -43.6076 9.28522
-42.3661 -42.01 9.74356
-44.2608 -42.8973 9.00933
-42.8665 -41.9023 10.1076
-41.459 -39.7955 12.6403
-42.0586 -41.9211 9.62379
-43.1336 -42.5034 9.4079
-41.9325 -39.4217 11.2215
-41.5953 -40.1352 11.0543
-43.1055 -42.7696 9.32063
-41.1118 -37.9666 12.2457
-40.7128 -39.0279 10.9673
-46.0784 -43.3394 7.58065
-43.2119 -41.6799 9.5095
-41.5438 -38.8305 10.8512
-43.7321 -41.3346 8.36911
-42.5044 -41.6044 9.8548
-42.3686 -41.4903 10.7724
-43.2904 -42.6897 8.52945
-42.3551 -41.8394 11.0109
-42.0736 -38.8843 11.3796
-43.3596 -43.2817 8.13504
-45.8025 -42.7307 7.95694
-43.0374 -41.5809 9.98368
-42.9306 -38.6915 13.6338
-48.3219 -39.3821 15.9535
-42.7904 -42.808 9.21766
-42.5007 -42.3785 9.65222
-43.1887 -40.8457 10.0982
-46.1612 -43.1453 8.07221
-43.9418 -38.6346 13.8885
-42.2185 -37.8823 10.7807
-42.45 -42.0865 10.1781
-44.5229 -42.8966 8.42
-41.9699 -39.1628 12.2264
-47.1525 -44.4175 7.74261
-42.8595 -41.814 9.12989
-44.8794 -42.1383 8.66227
-43.276 -38.3233 13.6075
-41.7176 -40.7622 9.70622
-41.6173 -38.1823 12.9234
-42.144 -39.1195 12.7275
-41.557 -40.942 9.96654
-42.2596 -42.8097 9.36841
-41.4998 -38.4185 11.5066
-47.43 -43.4189 7.54384
-42.509 -42.2473 9.79425
-42.3286 -41.8878 10.2691
-42.3967 -41.4398 9.30529
-42.9506 -42.4469 8.4648
-52.2262 -39.0752 18.5915
-43.2889 -41.2333 10.2542
-40.7596 -39.8208 10.9217
-45.9799 -38.8381 14.1923
-40.7162 -37.5784 11.1831
-43.0965 -42.0389 9.03713
-41.5041 -38.0964 10.7893
-42.1344 -40.995 10.3887
-43.3936 -41.382 9.68722
-41.0189 -37.9651 11.5173
-43.8305 -38.3169 14.0708
-42.2069 -41.1978 10.2095
-44.4894 -43.3875 8.59025
-42.9815 -42.2222 9.67364
-43.7266 -42.7896 8.55712
-42.6961 -40.8041 9.82698
-41.6746 -39.0593 11.0626
-47.6513 -43.0293 7.7474
-41.7747 -38.1771 12.9163
-40.9762 -38.5562 11.8149
-46.8301 -38.9114 15.131
-42.1268 -39.1409 12.5318
-44.3062 -38.4473 14.0487
-40.1001 -35.7351 10.8134
-42.2306 -42.0684 9.84796
-41.406 -38.8709 12.067
-44.9411 -44.3586 8.50905
-45.945 -43.2278 7.89862
-44.6168 -38.66 14.3248
-43.5726 -39.0732 13.6859
-42.159 -41.17 11.028
-43.8561 -41.9129 10.4644
-41.7894 -38.7005 11.0367
-40.7511 -37.7807 11.9237
-41.7159 -37.5991 13.0556
-42.7037 -41.4998 9.28783
-44.1283 -41.5975 9.87834
-42.4013 -41.4823 9.41108
-41.2557 -38.7423 12.5091
-41.0768 -38.9282 11.5652
-45.6072 -39.1476 14.3587
-43.3325 -41.5229 9.51496
-43.3795 -41.9708 10.3536
-44.5151 -43.0353 8.64934
-41.7184 -40.9355 10.4241
-43.8394 -42.1545 8.6199
-49.4221 -41.9334 6.52716
-50.2932 -38.8535 17.5759
-46.2886 -39.1107 14.7704
-40.9017 -39.2874 11.4116
-43.5759 -41.7803 8.61534
-42.5352 -41.9814 10.4047
-42.4778 -43.1881 9.36635
-42.6294 -38.3471 13.4567
-43.2221 -41.7921 9.90953
-44.6866 -44.1352 8.77514
-41.6285 -40.9394 11.5025
-43.4659 -41.8324 10.0416
-41.4115 -42.1616 9.1236
-41.2852 -37.9732 12.583
-42.7184 -41.556 9.83696
-43.4051 -38.3718 13.7859
-42.4766 -43.1266 9.64326
-49.3935 -39.5505 16.1266
-44.9377 -38.9008 14.303
-41.4668 -37.8667 13.0637
-42.3541 -41.6705 9.87239
-42.6197 -41.2915 9.4588
-42.7331 -40.6064 10.1142
-45.4109 -43.0412 8.02852
-41.698 -39.3773 11.0442
-41.481 -38.4448 12.4083
-42.7999 -41.0275 9.67125
-42.8859 -41.4729 9.46512
-43.441 -42.5681 9.65678
-42.9294 -42.0959 9.967
-43.8639 -42.361 9.23215
-42.0744 -40.3936 9.99741
-50.1783 -35.2272 26.7917
-42.4251 -40.5073 9.97044
-46.9131 -38.7583 15.8362
-45.2188 -43.8942 7.83581
-43.6478 -42.6762 9.13539
-47.4731 -39.4343 15.7777
-41.5227 -40.2999 11.0806
-42.8013 -41.3574 9.19962
-44.9914 -39.0537 14.4999
-42.3066 -39.9074 10.2767
-41.313 -39.542 12.47
-43.4741 -41.883 9.1667
-41.2848 -39.1897 11.5629
-44.243 -43.1638 9.27693
-50.4496 -38.977 17.8158
-43.148 -41.164 9.82091
-41.8532 -38.7297 12.928
-47.0274 -38.8981 15.1911
-40.9047 -37.4474 12.7297
-40.6075 -37.4429 11.5306
-44.1123 -42.6054 8.94138
-47.7852 -39.3219 15.2828
-42.7405 -42.7751 9.39014
-52.2158 -38.8474 18.6082
-45.6689 -38.6218 14.4842
[...]
POINT_DATA 10000
SCALARS t float 1
LOOKUP_TABLE default
221.485
214.172
210.652
214.729
211.406
214.594
215.502
211.657
211.4
212.635
217.018
212.733
214.758
214.08
215.026
212.079
218.877
214.671
211.641
213.242
226.52
214.812
214.602
220.983
212.663
222.134
222.614
214.695
214.594
214.952
226.214
211.306
215.61
215.234
212.144
214.833
212.965
213.748
211.497
214.923
222.783
221.765
212.32
211.499
210.241
210.203
210.463
210.38
213.153
225.058
214.832
211.814
212.871
220.062
215.052
215.977
214.743
222.888
213.927
212.168
212.785
212.504
219.811
210.48
212.74
217.438
214.578
210.721
212.385
214.891
215.098
219.293
215.185
217.568
214.647
226.115
211.99
227.009
212.331
229.45
222.41
228.795
212.143
215.15
211.895
214.597
212.177
210.559
220.677
214.644
222.208
213.366
213.214
212.188
215.279
211.936
225.972
221.51
212.141
224.324
215.538
216.218
221.154
212.087
218.106
217.179
215.268
211.379
212.752
215.037
211.894
213.224
214.534
213.305
211.483
210.799
221.897
210.938
217.806
212.278
214.741
214.691
210.441
212.96
212.752
222.353
211.163
214.677
214.517
212.347
211.22
225.685
216.189
211.919
210.662
220.539
210.98
211.73
212.43
215.716
210.192
227.021
215.114
213.408
211.602
214.811
216.918
221.866
222.252
220.026
214.772
227.785
234.305
214.61
212.756
210.831
224.354
210.848
210.849
212.803
216.245
212.445
223
213.429
214.596
214.977
216.189
220.328
210.354
220.583
212.157
214.444
214.652
213.777
210.25
212.855
216.351
211.355
212.491
215.246
210.623
213.554
215.45
217.572
211.304
213.11
212.068
212.52
215.28
211.855
211.474
211.151
210.516
213.424
214.261
210.471
233.895
214.564
213.026
212.181
216.043
213.994
221.261
227.614
213.637
212.329
217.351
213.618
214.545
214.203
225.452
227.3
215.033
214.377
218.491
219.295
213.187
210.99
211.023
220.864
212.877
212.107
217.668
210.334
210.313
216.517
226.058
214.785
212.588
210.554
215.174
210.938
211.112
216.778
214.114
218.859
212.239
214.817
214.855
216.193
210.981
210.363
216.724
214.261
210.807
229.353
215.703
211.081
224.21
213.552
210.312
222.483
210.205
211.58
225.192
226.792
212.883
214.959
214.512
217.431
214.61
212.49
225.735
214.646
211.849
211.847
223.212
213.758
227.602
218.296
221.646
214.702
214.493
215.07
214.713
212.904
216.384
212.17
229.705
213.791
211.456
217.12
223.068
212.235
211.756
210.284
214.299
212.081
218.91
211.606
211.123
214.625
212.496
214.637
211.797
221.759
214.526
222.231
213.865
210.997
228.353
215
213.036
214.795
214.389
214.484
213.023
213.491
213.539
221.997
227.001
214.654
214.886
210.27
211.073
211.202
213.673
215.037
217.236
213.574
216.371
214.645
212.12
214.659
215.704
211.288
221.444
210.961
221.977
238.558
212.804
214.814
211.518
222.144
211.017
216.32
214.932
213.279
220.165
211.258
212.613
218.266
214.809
213.681
214.72
214.531
214.485
214.643
215.177
213.426
216.095
212.389
226.088
210.772
214.39
214.752
216.026
214.588
212.879
217.433
212.871
217.538
213.056
214.408
227.116
218.033
214.73
210.376
217.903
214.874
211.729
214.487
218.013
211.96
216.927
212.652
213.882
215.04
214.759
215.149
212.873
219.437
214.847
216.248
212.087
214.471
214.178
215.269
211.332
213.789
214.787
214.07
211.02
217.007
210.49
212.905
214.928
216.105
213.769
211.369
214.416
214.704
222.375
212.465
230.885
213.843
221.477
226.199
210.336
212.759
210.745
210.301
226.016
214.773
212.577
214.417
210.955
213.429
214.9
214.8
218.322
210.521
217.396
214.494
227.543
214.38
218.309
214.061
222.335
211.937
214.26
221.937
211.888
212.331
210.351
217.566
214.027
218.903
211.577
214.747
214.61
211.109
222.217
211.006
210.593
213.294
215.43
211.379
220.155
210.243
212.948
211.533
214.967
213.885
225.059
210.841
210.714
213.856
215.09
211.564
224.131
223.683
214.406
221.463
224.016
220.823
210.495
211.289
214.898
214.862
216.01
211.62
211.981
211.276
211.368
217.522
211.317
210.326
214.807
225.666
212.53
212.347
215.024
211.985
210.969
225.958
226.166
210.471
215.01
212.918
222.293
214.099
216.507
214.964
227.233
215.119
211.235
220.111
215.504
219.536
228.657
215.007
211.5
215.54
213.631
210.303
210.489
212.683
217.135
214.865
211.609
232.545
210.509
220.288
223.261
221.633
211.483
211.366
214.802
212.532
212.367
213.928
218.876
214.843
222.098
214.487
215.238
212.814
226.792
212.028
215.001
213.841
216.073
225.803
215.165
214.532
236.141
215.928
219.945
221.572
225.73
212.984
211.536
215.699
215.688
214.72
212.222
211.607
217.072
211.189
224.286
221.371
225.505
212.13
226.961
216.975
214.621
219.071
213.724
213.335
211.816
213.284
211.372
210.92
213.749
217.824
210.253
217.884
214.882
211.11
213.921
220.596
211.27
212.564
212.976
215.197
213.993
210.479
211.108
214.494
219.406
214.605
212.679
213.688
212.084
219.732
232.931
211.26
217.038
217.963
217.435
215.014
210.257
214.412
216.665
211.093
211.394
227.607
230.206
212.734
225.896
211.244
211.311
212.913
210.399
216.72
212.148
218.453
211.924
210.351
213.08
215.09
211.651
213.4
212.163
213.071
214.577
217.889
211.793
210.307
212.987
214.922
210.985
213.958
211.147
215.185
212.154
211.797
225.304
226.198
225.207
213.063
210.822
211.933
214.482
219.897
211.06
221.076
214.911
212.401
213.947
211.917
210.201
214.676
216.155
212.604
214.178
213.527
212.373
214.829
212.79
212.465
224.059
212.185
222.319
216.107
217.421
227.121
213.463
218.858
214.789
215.474
230.142
211.439
211.921
212.66
217.502
210.697
214.335
214.635
214.419
213.02
212.805
214.512
214.66
212.504
214.895
212.611
212.34
211.881
213.724
214.75
221.828
212.084
213.134
219.458
214.385
214.691
225.345
220.663
213.707
210.696
214.759
231.355
211.332
212.36
210.627
214.447
232.923
213.524
214.622
213.964
215.115
211.638
213.203
223.008
210.873
214.93
212.463
226.43
228.046
212.445
219.261
214.455
224.919
217.989
214.789
210.655
214.644
211.084
215.58
210.94
215.007
213.203
212.121
215.392
221.715
212.447
211.741
215.744
210.966
212.358
213.434
217.792
222.691
211.249
210.516
217.974
213.197
210.906
218.731
224.61
223.907
218.923
214.333
211.217
211.664
212.783
214.834
212.139
211.647
214.798
214.347
213.181
214.385
220.329
213.691
216.428
210.334
211.961
221.462
221.885
223.77
212.66
227.554
224.822
215.864
216.807
210.792
215.468
214.654
210.752
212.197
213.631
215.133
213.506
223.033
218.688
210.942
212.869
229.905
210.808
212.485
210.339
212.731
222.333
218.971
214.31
210.257
210.352
210.916
213.119
221.669
211.222
211.842
219.57
211.541
217.602
221.374
212.905
212.603
219.769
210.459
212.098
214.65
210.803
212.303
215.847
210.96
211.564
213.309
214.936
216.093
213.632
214.836
222.393
227.279
223.883
225.597
224.368
228.187
212.103
228.549
215.753
218.77
217.725
214.625
212.713
211.356
212.541
230.76
212
210.937
214.922
223.081
218.095
212.068
212.886
210.156
215.033
229.65
210.668
224.219
213.788
212.707
210.617
216.341
225.902
210.781
213.162
211.131
214.191
219.215
215.347
211.049
212.982
210.419
215.19
212.836
211.132
221.907
221.924
211.893
214.603
211.024
214.724
213.368
211.397
211.589
226.313
210.978
212.41
211.807
213.627
215.972
216.284
210.27
214.805
213.138
219.784
214.772
222.229
222.231
210.396
211.983
217.372
215.128
214.963
211.837
210.619
229.804
215.576
212.543
210.572
215.612
216.461
213.588
213.557
220.266
213.328
213.04
210.898
213.309
215.456
211.411
213.531
215.034
211.149
213.398
210.67
214.008
214.201
210.81
211.096
213.502
218.015
217.649
214.033
214.611
211.032
210.641
213.946
233.664
217.062
212.527
210.345
210.545
213.425
214.795
215.191
212.129
215.748
214.845
222.563
211.93
229.977
214.82
216.869
214.3
224.75
214.953
225.48
212.655
211.701
213.871
214.384
215.799
212.597
210.475
211.212
214.213
211.221
214.993
213.481
224.764
228.824
210.261
228.799
212.649
213.454
217.478
213.218
212.213
212.349
224.2
217.23
210.468
213.878
213.416
212.856
219.702
212.807
235.479
212.397
212.707
220.169
211.353
215.207
217.632
214.762
213.781
214.938
215.039
214.959
212.949
214.796
211.133
211.451
220.201
215.129
214.882
214.736
215.543
224.022
211.923
212.013
213.623
210.45
214.737
210.707
214.706
214.942
212.017
214.934
230.483
210.879
212.932
218.549
213.53
216.759
211.478
212.451
222.937
226.671
220.98
210.701
212.965
214.147
216.607
220.801
213.827
214.35
214.584
210.497
220.113
212.773
211.419
213.989
214.752
211.773
225.889
212.74
212.489
211.125
218.896
225.536
214.744
212.422
215.526
228.952
211.827
239.996
226.016
220.432
214.556
221.888
215.463
212.051
222.299
210.81
215.441
215.621
214.497
214.42
218.089
219.373
216.249
213.639
224.65
210.272
210.513
210.878
223.983
213.204
211.429
211.669
212.972
215.323
213.03
212.992
220.305
212.096
220.464
215.937
214.805
212.191
229.669
215.761
222.048
211.873
210.88
211.195
214.927
213.438
223.125
214.204
210.305
212.886
214.123
210.83
225.423
220.715
210.574
223.144
228.557
214.93
221.266
220.676
215.16
211.709
212.363
211.165
222.908
214.725
223.158
215.277
221.326
231.825
213.948
239.591
214.536
210.467
219.474
222.854
210.323
212.399
218.089
212.334
239.524
214.829
215.598
212.22
215.913
212.68
218.935
210.378
220.941
212.73
211.733
214.652
210.939
216.386
214.951
214.656
213.272
226.964
234.336
215.707
212.113
210.165
218.431
215.005
210.237
213.288
232.158
211.976
215.195
214.229
210.889
214.181
212.053
215.373
214.594
215.102
210.6
213.184
217.189
210.714
213.956
211.863
233.832
221.59
214.155
216.675
223.418
213.157
219.597
215.094
216.011
214.842
219.288
212.051
222.723
220.441
220.692
218.176
218.349
211.897
219.476
223.028
219.784
214.963
214.87
213.716
213.644
213.932
214.06
216.341
224.808
211.132
213.018
212.202
232.856
213.484
214.897
211.62
218.878
212.182
229.063
211.11
210.237
213.907
213.76
212.021
221.86
215.193
215.513
217.178
214.43
214.566
216.785
232.568
213.227
214.947
226.666
214.297
211.455
214.678
214.601
211.226
213.828
214.868
223.416
214.379
214.792
215.581
215.016
213.846
228.945
226.868
212.192
215.045
212.433
216.47
226.707
214.587
211.239
211.129
228.356
212.736
213.693
218.975
222.122
212.258
228.099
210.343
211.87
210.734
222.625
212.426
219.165
213.632
210.367
217.146
213.857
215.069
217.075
215.551
214.373
214.617
214.68
211.676
223.605
215.582
211.306
210.751
215.242
211.034
211.046
213.022
214.801
228.638
210.945
216.742
212.435
211.388
228.776
215.036
211.328
212.009
214.897
210.633
216.422
214.862
213.853
211.645
212.557
211.073
213.17
221.275
218.256
214.571
211.958
218.732
220.306
214.045
225.173
217.761
215.191
214.739
213.677
213.783
213.018
219.953
212.056
213.273
213.107
219.948
217.539
230.183
212.962
214.85
222.454
214.284
213.439
210.282
212.778
213.395
212.345
218.714
211.561
213.181
214.538
211.709
223.619
221.504
231.494
219.004
210.457
211.986
210.31
215.153
212.492
212.303
215.91
221.203
213.509
223.712
212.366
212.157
212.46
210.203
210.772
211.758
210.695
215.377
211.081
213.908
215.1
212.575
214.734
211.251
214.002
215.089
214.953
211.285
215.461
211.447
212.579
210.751
216.348
219.085
215.213
211.957
220.912
211.973
214.941
214.985
222.282
210.283
212.435
212.623
214.605
211.543
211.618
219.467
214.184
215.037
213.871
212.32
210.953
213.742
212.914
212.692
214.661
213.914
229.919
217.351
211.125
216.433
211.138
226.938
213.24
215.386
213.66
221.189
226.474
214.04
210.769
213.375
212.59
215.017
211.958
220.751
226.111
214.839
211.159
231.035
229.427
213.67
211.33
215.693
220.297
212.294
218.176
212.259
224.815
216.275
223.594
214.783
213.315
213.34
229.143
214.475
211.437
211.686
210.295
214.51
214.599
222.323
210.876
212.307
210.323
212.42
211.659
218.157
215.114
211.273
214.663
212.355
211.553
215.854
214.325
210.521
214.195
213.064
214.099
214.617
212.928
218.134
211.509
215.056
211.9
223.763
223.902
214.493
215.127
221.862
210.937
222.268
210.429
224.796
216.4
213.513
217.324
220.516
216.897
212.959
220.597
214.769
213.778
221.36
211.486
214.82
210.378
221.197
214.07
221.088
216.217
213.911
229.288
215.637
212.363
212.594
214.481
210.984
212.154
214.43
214.879
213.757
212.623
212.623
215.203
220.553
214.291
219.818
210.58
233.636
211.712
215.11
210.548
211.923
222.896
226.305
212.508
213.383
211.851
222.626
220.851
210.533
214.977
212.178
210.825
219.822
226.027
215.049
214.857
215.088
215.774
210.384
225.47
212.3
217.665
212.668
218.316
212.45
215.807
210.332
221.219
212.262
219.037
212.96
212.41
210.573
213.054
219.75
214.459
224.278
222.255
211.34
211.394
211.215
227.584
217.598
210.522
214.478
213.465
214.072
214.293
213.109
216.825
222.359
214.088
213.72
212.301
211.406
218.398
222.035
211.39
211.034
210.412
212.827
211.231
214.752
220.505
211.599
211.315
221.948
213.867
210.806
215.526
214.586
214.642
217.372
215.065
228.96
214.372
210.704
214.86
213.406
212.711
214.982
218.673
212.955
218.401
212.495
233.112
215.019
214.559
219.622
226.609
215.097
225.668
213.76
214.318
225.876
214.272
214.752
216.869
210.804
214.722
213.115
211.605
213.247
211.996
212.199
213.148
215.282
213.631
218.914
215.322
224.949
214.798
219.701
212.092
212.524
216.511
214.937
219.811
216.279
210.617
210.465
221.421
220.38
223.627
215.086
215.943
228.223
214.129
212.773
213.672
214.6
214.099
211.479
212.916
211.015
212.536
213.142
214.678
214.684
214.885
222.615
212.957
212.248
216.175
212.79
220.104
212.799
213.572
212.349
210.903
217.297
212.435
213.839
214.365
230.275
214.547
214.298
212.12
210.677
214.627
220.257
214.27
215.158
210.887
221.417
217.324
213.826
212.609
211.774
214.122
216.309
228.5
213.595
215.228
213.852
219.043
211.203
212.893
210.859
222.18
218.828
219.968
212.775
211.866
212.754
210.504
212.217
210.94
220.68
217.83
215.495
224.439
216.301
214.589
217.664
213.894
210.349
219.083
216.838
211.561
227.955
226.933
222.72
215.233
214.717
210.287
210.893
213.863
214.213
210.422
214.195
213.402
214.738
211.472
212.704
213.733
220.745
212.789
216.53
219.313
210.609
223.632
212.811
214.248
210.587
219.258
214.81
222.827
215.482
215.721
214.928
226.487
210.242
213.53
212.161
211.667
211.507
212.034
218.104
210.349
214.281
225.515
225.139
214.817
212.143
210.768
214.705
225.415
219.662
218.258
210.617
216.915
210.371
214.434
214.352
215.132
210.956
215.148
212.14
213.428
214.015
210.414
213.5
217.312
215.117
215.01
214.92
211.79
224.517
212.706
212.224
220.892
214.777
212.53
217.638
213.195
223.002
230.98
210.893
217.371
214.597
226.472
212.631
214.612
212.109
210.61
223.389
210.505
217.714
211.654
215.25
229.707
218.549
225.944
214.031
215.031
213.585
214.851
219.514
214.878
212.793
223.333
216.047
215.285
212.239
226.969
223.46
211.942
224.579
226.894
211.247
218.369
213.502
214.491
220.013
214.372
219.266
210.183
214.195
211.582
210.293
214.349
214.399
217.886
215.673
213.217
231.508
213.447
214.996
212.873
220.685
220.868
212.921
219.063
215.277
214.623
215.552
218.622
211.111
211.008
219.546
210.674
210.336
210.493
215.033
218.447
214.728
210.758
216.9
214.865
214.4
213.996
211.837
210.836
211.623
218.55
211.899
222.136
213.34
215.628
219.072
217.967
214.694
214.967
210.209
220.49
213.58
211.347
221.256
216.334
213.568
212.377
211.627
211.324
212.435
215.845
215.824
214.098
213.989
211.159
211.036
215.016
213.848
210.996
210.505
216.127
214.495
220.236
210.873
212.503
228.996
210.765
212.391
211.025
218.306
213.147
212.709
211.906
214.53
212.049
210.335
225.814
214.562
215.089
227.166
220.996
214.017
224.501
215.072
215.264
212.999
210.63
217.3
213.44
214.767
213.22
212.521
219.47
214.786
213.583
216.48
220.191
219.429
211.245
221.769
212.537
214.269
219.741
211.247
215.845
210.791
215.86
211.168
213.248
213.729
214.195
210.322
215.068
214.753
212.654
212.639
211.056
211.398
219.877
227.272
229.634
211.225
211.309
229.368
224.64
213.551
226.929
211.063
222.743
223.249
221.601
221.002
212.21
212.139
215.042
214.683
215.575
212.673
229.827
213.245
217.434
214.638
212.034
218.944
215.54
212.567
217.181
214.689
219.739
211.872
211.81
211.543
210.604
211.655
210.761
212.751
214.775
221.268
214.51
218.83
214.648
214.802
213.69
211.752
224.133
212.183
224.878
229.82
223.512
222.68
222.502
210.455
214.957
214.345
213.951
217.385
211.592
213.188
211.744
212.446
212.537
224.97
222.821
215.125
212.028
214.436
214.926
225.822
213.103
211.139
218.382
211.651
210.165
218.967
210.876
223.585
217.443
221.006
213.789
223.303
219.615
212.923
211.443
215.412
210.446
223.846
211.203
212.948
213.402
210.936
215.871
216.261
215.148
210.365
214.704
210.594
227.649
227.325
227.658
215.093
212.976
215.089
210.791
217.104
215.705
210.546
230.542
213.905
211.848
223.12
212.08
210.347
215.782
213.763
229.382
214.108
212.138
211.683
214.814
211.749
210.923
216.554
210.299
216.116
214.467
213.106
214.803
211.991
219.323
217.422
216.135
212.391
210.966
224.686
214.892
213.579
213.383
210.385
223.281
214.741
218.475
214.874
211.541
217.478
216.559
211.183
212.644
213.45
215.262
234.726
214.839
214.432
220.683
214.98
210.675
213.034
221.566
212.724
213.729
227.553
222.368
213.871
212.322
226.83
211.229
215.977
217.942
211.218
210.954
214.798
228.279
212.954
214.083
214.293
218.005
214.143
215.481
210.915
212.106
210.46
211.868
215.147
212.664
212.301
219.857
212.083
212.445
221.744
211.543
212.042
215.253
212.028
210.175
212.253
211.936
215.571
214.609
216.405
215.082
210.394
211.416
211.616
220.873
210.807
211.86
219.837
212.738
211.954
222.315
210.141
214.229
217.341
213.245
223.711
214.306
211.545
214.291
239.041
210.635
226.437
210.897
215.382
223.18
211.627
217.168
210.539
231.237
217.179
213.412
216.497
214.573
213.855
222.527
221.328
216.627
221.549
215.023
216.055
214.777
210.259
215.17
211.631
224.031
211.346
213.587
221.824
217.407
211.391
221.515
214.941
216.593
211.125
212.662
210.455
219.515
223.141
223.469
212.644
212.705
219.096
213.666
211.614
215.19
213.361
210.5
214.524
215.676
214.906
213.029
222.694
213.467
214.245
214.067
210.257
216.317
211.148
215.032
212.331
216.626
220.531
214.475
214.217
213.055
215.314
214.735
223.813
220.654
216.996
216.8
210.758
211.148
211.82
214.194
218.215
211.243
214.524
214.585
214.894
210.623
226.372
213.914
212.813
212.884
219.98
218.852
214.857
213.636
219.427
210.434
215.048
212.441
215.001
211.598
212.657
217.372
210.948
215.293
213.065
223.604
215.74
226.518
215.509
215.376
218.731
212.752
212.383
212.72
214.515
217.265
217.307
212.626
210.766
221.983
212.975
212.5
215.043
211.227
213.29
211.166
215.475
226.141
213.375
211.822
217.707
219.432
214.311
211.394
213.645
211.032
213.697
213.693
219.819
215.194
211.333
219.783
214.235
218.01
222.536
214.781
215.06
211.598
218.327
211.883
222.095
228.624
212.863
210.905
216.062
210.654
237.403
211.531
218.694
211.924
212.683
211.357
211.853
215.934
211.688
229.386
218.011
226.877
214.627
211.899
217.626
225.895
214.649
211.976
216.008
228.96
213.298
213.096
220.345
211.159
213.802
210.677
210.764
213.694
215.672
214.704
215.344
211.548
222.144
211.924
222.095
212.097
212.596
211.4
214.346
225.3
212.793
212.032
217.231
213.395
211.484
216.604
217.936
213.071
215.278
214.555
212.546
213.526
215.661
211.73
210.612
220.881
221.332
213.562
214.245
215.15
220.099
214.764
211.144
220.27
220.983
212.097
220.002
215.285
210.667
228.744
221.461
213.218
214.949
214.799
224.417
217.872
215.029
222.998
215.064
214.291
230.308
214.919
210.583
213.191
225.352
211.644
220.172
213.837
211.227
215.174
221.222
211.347
217.067
216.983
213.532
214.718
215.4
211.154
218.449
220.173
215.227
222.694
214.607
210.41
211.948
217.761
212.18
212.408
210.629
214.644
219.406
210.395
212.767
222.426
215.003
215.217
210.884
214.628
211.246
210.965
212.18
213.235
214.796
213.799
211.156
211.824
211.066
219.948
220.43
215.204
214.883
214.795
211.459
215.291
214.906
211.16
213.529
215.034
211.53
211.89
212.417
210.583
214.517
210.534
214.766
212.769
211.283
220.651
212.162
214.964
214.097
214.21
211.718
220.389
219.253
216.16
210.822
219.7
212.359
220.22
214.631
212.566
212.39
211.635
215.058
214.369
216.875
214.662
211.472
210.519
211.724
217.239
214.755
212.59
214.501
221.279
212.267
210.587
215.123
222.167
210.885
214.051
212.536
219.269
212.837
211.24
211.992
211.665
213.81
217.379
225.497
214.855
210.102
210.014
212.854
210.578
210.666
226.427
223.325
220.629
220.195
210.235
225.024
213.935
210.534
222.653
225.821
212.305
214.731
216.208
210.676
212.909
212.882
215.949
211.518