# vtk DataFile Version 3.0
vtk output
ASCII
DATASET POLYDATA
POINTS 10000 float
-15.2007 -26.3318 4.61504
-3.50479 -43.1409 12.2214
-15.0431 -28.1298 7.29026
3.17747 -47.3526 15.1723
-8.58679 -41.2076 10.4572
-5.13594 -41.446 13.3922
-14.4018 -25.2213 0.687874
1.12553 -46.4995 11.544
-2.80026 -45.0027 11.0582
-13.1117 -28.2176 7.31891
-14.8516 -27.306 6.96127
-14.5175 -30.1488 7.54422
-1.06857 -45.0161 13.8413
-5.74457 -40.2469 12.5864
-4.97458 -40.5058 12.9007
-2.77207 -45.6387 10.8632
-15.439 -26.9685 5.78265
1.98509 -46.218 14.9239
5.98452 -48.0204 11.3382
7.84577 -47.7426 11.7051
6.04166 -51.8942 7.72838
-4.80248 -39.5742 14.3337
0.989242 -43.2526 12.8708
11.6337 -53.1115 8.52813
-12.3455 -35.329 8.77028
-13.9372 -24.283 4.80235
1.9922 -49.1878 7.39138
1.56038 -46.6718 15.1196
-13.49 -28.6409 6.69153
4.7656 -44.9007 12.1505
-13.6666 -31.7101 5.61053
-4.40695 -45.7085 8.90751
-11.7405 -29.5438 8.32776
-14.832 -27.5906 6.92811
-10.2601 -39.2744 9.65341
-0.958703 -44.5817 12.4489
-14.1377 -29.2343 7.983
2.78254 -47.0881 10.8859
-5.85254 -43.6545 10.5509
-0.423918 -42.4138 13.6246
-15.166 -27.1266 5.16037
-5.81894 -43.9039 6.78065
4.45948 -46.6771 12.1722
0.277265 -46.2617 11.8232
-3.93062 -44.8725 10.779
1.62452 -46.9197 10.9375
-4.93985 -42.9875 11.0007
-5.76506 -43.9565 10.3418
2.42442 -45.9544 11.8611
8.53302 -51.8182 7.34888
-0.888051 -41.9926 12.7562
-12.7632 -35.0942 8.98302
-10.8655 -38.3445 8.13272
-14.0634 -30.9576 6.27799
-1.40347 -43.5422 12.0436
12.5554 -51.2461 8.74824
0.783756 -45.2521 14.3043
-16.0936 -25.6466 3.96685
16.7453 -53.0609 9.53694
-1.37381 -44.4954 11.8718
-12.7806 -31.3797 7.77219
-13.9681 -31.0434 8.62914
-16.4369 -26.1806 4.29512
-1.76647 -45.0438 10.8329
12.9491 -52.5124 9.81661
-13.3645 -25.3759 2.0641
4.18706 -47.5862 15.8259
3.28536 -49.5376 10.9943
-1.8232 -44.7699 18.0532
1.84311 -47.1287 14.676
-1.55163 -43.545 13.1738
-13.9138 -30.7096 7.63032
0.200369 -44.5308 12.8318
-14.592 -29.7122 7.71716
3.55399 -47.3892 15.1736
3.88938 -48.9128 6.05832
7.052 -46.0782 11.9182
9.16211 -52.6637 7.489
-0.0525618 -45.4167 12.0158
6.1697 -51.811 8.16029
14.6489 -52.7904 9.10668
-3.28198 -45.0193 5.50529
-13.0541 -31.8702 8.44657
-2.04577 -41.8708 12.9119
4.59219 -47.4659 11.5759
-0.228398 -44.6321 12.9396
-12.4843 -35.9353 9.44826
-5.37805 -44.3558 9.9927
3.08082 -49.2467 7.65419
-2.61237 -42.8418 13.7017
0.737884 -48.2373 7.18773
-14.4464 -25.7391 6.65348
1.22552 -44.5825 12.7762
-6.23379 -42.4865 18.6742
-14.3717 -28.8767 7.22574
-7.63759 -38.3317 10.819
-10.3874 -38.0702 5.84589
-14.5545 -26.8652 5.97663
-9.37642 -40.5857 10.4958
12.1403 -51.2208 6.37784
0.420892 -48.749 8.86341
-14.1955 -29.4327 7.79674
-13.4903 -32.7627 5.86871
6.18276 -48.0304 11.8688
-15.1002 -28.3201 5.96033
-14.1092 -28.6505 6.91633
0.881093 -42.7373 12.8336
0.814572 -45.7531 11.125
-1.18786 -42.8392 12.5716
-0.59508 -44.442 13.3077
-14.2329 -28.8592 7.74378
4.9479 -48.0896 11.3753
-0.86811 -41.0515 13.2527
2.94651 -45.8308 11.9655
-14.7529 -29.5116 8.15462
-9.39502 -39.61 10.4384
-15.4419 -23.2921 3.79808
-11.9842 -30.2821 8.2479
-14.3888 -28.0325 6.74994
-13.3408 -28.82 7.89608
-3.35647 -41.332 13.623
7.56428 -49.6072 15.6828
-8.47388 -38.9195 10.6798
0.505535 -46.5757 11.4631
-14.9424 -27.7011 7.23612
3.57405 -49.3 6.67404
7.39908 -47.3888 10.9991
-3.91978 -40.7022 13.8939
-12.687 -28.7846 7.3733
-13.72 -30.5958 7.78696
-6.65003 -42.8168 10.4976
3.07785 -49.0098 6.00316
-14.4277 -24.5531 4.97957
0.986171 -44.0909 12.2551
-5.82879 -42.0238 10.9309
-14.6472 -26.4199 2.06486
-14.355 -30.2527 8.22343
-1.51587 -45.4415 10.6673
4.47227 -43.6927 12.9263
-14.2912 -26.0345 1.78462
-4.58489 -43.543 11.071
5.33246 -50.6318 6.80876
-3.65961 -40.8639 12.7602
4.06958 -47.3708 16.8283
-6.24197 -42.7869 10.7187
-4.16119 -42.1911 13.7363
-13.2658 -29.213 6.54496
-13.9868 -31.0182 6.04086
-13.2627 -28.8392 6.29769
-13.8916 -25.2504 1.7752
-1.84982 -43.1015 12.8618
6.49012 -50.6006 6.37066
1.03516 -49.2189 6.16764
3.23953 -47.6987 15.082
-1.29494 -44.0876 12.7363
-13.196 -33.6751 8.70443
-14.2892 -30.6586 5.40312
-10.381 -37.7346 10.1736
-10.2624 -39.673 9.09778
0.691554 -44.0158 12.5988
-14.6853 -25.7133 6.1517
6.496 -46.3326 11.7072
4.61101 -49.5237 6.98553
1.32204 -43.9994 12.1333
-2.85327 -42.4282 14.0109
-0.814842 -44.4694 14.7897
12.9087 -52.4059 9.35887
-13.8124 -28.1488 6.6243
-2.21392 -43.2019 11.9809
-14.9115 -23.8606 3.98818
-12.5451 -32.3526 8.51281
-10.6958 -38.7514 8.45084
3.8575 -47.6926 15.5436
3.28005 -47.4949 16.4988
-9.43433 -40.2507 10.0264
-1.96866 -42.5846 12.5081
-14.8456 -26.3698 1.70508
-12.2858 -35.2141 9.42309
-13.0657 -30.3545 7.99736
-15.0139 -27.2246 6.71848
-13.5038 -31.5983 8.09428
-13.7045 -30.4802 8.2366
-13.5246 -29.1021 7.26698
-13.1293 -28.5949 6.95249
-15.189 -28.5971 7.16141
-3.31186 -43.0027 11.7312
-5.73271 -43.2088 11.0128
3.89657 -45.5991 11.8042
2.79004 -45.5587 12.4947
-12.1135 -35.21 9.46171
-11.2335 -38.077 10.0037
0.458179 -46.0173 11.4
-12.4017 -35.3802 9.80967
4.60624 -45.3667 11.9051
5.03177 -48.4455 15.5322
-5.33967 -42.9959 11.2018
-18.3946 -25.6977 3.70347
-1.00608 -43.7764 13.3422
-0.0992678 -43.9836 12.8209
-15.1692 -26.5093 6.36207
-10.018 -39.7606 8.41354
-0.0873725 -44.0536 11.7591
-14.7898 -27.3215 5.07654
-15.2005 -26.6623 4.18542
0.256052 -44.5724 12.2659
-6.73091 -43.6352 10.6121
-15.0443 -26.8508 5.55665
-11.7314 -33.3127 9.37791
-12.9398 -29.5895 7.32519
3.70322 -47.3888 16.2932
-4.47458 -44.7247 6.24696
-17.0555 -25.1637 3.38358
-13.4676 -25.7162 0.498301
-13.805 -29.018 6.66356
-14.1965 -29.5559 7.26074
4.16204 -49.6603 7.37869
-11.6386 -32.3977 8.99191
-13.512 -30.0881 8.4125
-2.14976 -42.504 12.2474
10.7286 -51.525 7.0035
6.2485 -47.0803 11.9155
-0.624209 -47.1909 10.6132
-13.8596 -31.112 6.65617
0.680388 -45.9918 10.8573
-4.65205 -43.8618 11.4355
-14.7028 -28.4036 6.70222
14.745 -51.931 7.50354
-5.83834 -45.0123 8.77715
-13.5174 -28.9313 7.48835
-9.56212 -40.3548 9.54755
2.3914 -46.3838 12.6103
-12.5022 -31.492 7.84987
-14.0309 -31.0132 8.41392
-10.3179 -38.7717 6.98059
-13.9362 -29.0868 7.38141
-14.3452 -26.8873 5.60028
-13.2086 -28.9626 8.22934
-0.360638 -42.9188 12.8566
-13.1602 -29.0044 6.77919
-16.3713 -25.0933 4.72558
-7.35088 -42.0523 10.7016
-2.1318 -44.9524 11.4667
-13.0721 -27.3572 7.31727
-3.34983 -43.7668 12.1093
9.60954 -48.0673 11.3337
8.48534 -51.5728 6.56524
9.68614 -50.7643 8.63073
-13.1759 -33.0141 8.61378
2.87463 -48.7038 6.99846
-13.0477 -28.0262 7.55156
-12.9057 -34.3605 9.60581
-13.5712 -31.4824 5.9484
-2.77203 -44.1275 11.4398
0.475196 -45.1237 11.4692
9.68222 -50.8175 6.29265
-12.7432 -34.7471 5.36362
-13.0921 -28.7301 6.94831
1.77062 -46.3746 13.3995
4.26119 -48.4708 15.6957
-13.9205 -30.8862 6.83684
-14.6132 -29.938 7.99304
-13.4051 -30.3322 8.62289
4.77061 -49.6567 6.10759
0.504492 -43.1296 12.8309
-4.94917 -43.0369 11.0118
-11.5484 -37.4006 9.79164
-16.6228 -19.9514 2.73905
0.51477 -43.0461 12.7839
-17.0882 -24.9063 3.76514
-14.9399 -27.8927 5.91118
-15.5325 -27.7499 5.31518
-3.40933 -41.6468 12.9419
-15.4369 -26.1271 5.42381
-1.42364 -43.9957 13.5161
-0.960913 -41.6582 12.6447
-15.0674 -26.5201 5.28977
-14.3956 -28.8937 7.11252
1.70679 -45.7883 11.7876
-0.162907 -47.4712 5.96386
-10.3693 -39.4388 8.57903
-11.3795 -37.3461 9.80219
-15.6855 -24.9159 5.48655
-0.682725 -47.6088 6.86644
-2.88373 -43.9383 18.3321
-13.1048 -30.5962 8.1893
0.224476 -47.3988 10.2419
0.337463 -45.7459 13.7442
-0.956891 -42.5263 12.5015
17.3708 -52.7059 9.73987
-2.43372 -43.4509 11.6735
-11.9386 -36.1884 9.67889
-13.349 -25.8972 0.725072
-0.874915 -44.7368 11.8952
-2.0994 -43.1789 13.9994
-11.0308 -36.4114 9.88591
10.2705 -50.8686 7.64628
-13.2058 -27.2637 6.81383
-15.2714 -27.6563 5.29836
-12.9151 -30.5451 7.06532
-2.58693 -44.4115 11.0398
5.43157 -51.9266 7.20291
-2.71933 -41.235 13.3356
5.68921 -47.6112 11.3566
3.53739 -47.8303 15.1188
-1.32565 -41.3747 12.9881
-2.38645 -43.5185 13.7902
7.21784 -48.8835 10.6754
-15.196 -29.073 7.63541
0.180795 -45.4029 11.5897
-15.5176 -27.9671 5.67029
5.69187 -49.9254 5.812
-0.970498 -44.2749 14.1398
1.93903 -45.8575 14.1862
-9.44299 -40.0799 10.5825
-13.0016 -30.791 8.91935
-13.3228 -31.0967 8.19306
2.17523 -45.6132 12.29
-1.78839 -42.1068 13.1555
-14.4482 -24.5252 1.1415
-13.8876 -32.5438 8.22845
-13.2488 -23.9708 2.76609
0.494849 -42.2899 12.7976
0.214484 -44.5813 12.813
-5.78954 -39.7766 13.6333
-13.003 -29.4745 6.62541
-12.3778 -34.4262 9.44624
-16.074 -28.6125 5.56078
-12.7948 -32.891 8.84774
7.1008 -49.8455 7.3993
1.94147 -49.121 6.0367
3.08114 -47.1072 17.3736
1.67102 -46.8 14.5447
-2.68506 -44.7258 11.4266
-14.7577 -28.0956 6.30862
-12.7799 -32.9377 8.84302
14.0809 -52.1693 9.11626
-1.38716 -40.055 13.35
-13.9027 -28.2024 7.38401
-12.6638 -34.7475 5.56707
7.06435 -47.7154 11.8098
-14.3409 -29.9782 7.82398
-12.0699 -28.3814 7.84355
-0.193628 -45.1147 12.6507
-12.6892 -31.1498 7.9937
-2.22248 -42.3906 13.6419
-13.8932 -29.4841 8.13903
5.48514 -48.5814 16.524
-3.61422 -41.8051 13.9724
-3.92879 -41.7381 13.0568
-14.212 -28.0173 7.48299
-12.6712 -28.9133 7.07276
-12.4262 -34.2201 8.86353
-14.224 -27.4087 5.81045
-3.19004 -45.6141 10.5892
7.74917 -44.6568 12.4993
-11.6832 -29.436 8.21158
-13.9555 -27.2649 6.46741
-14.1504 -25.3445 3.17139
-13.5184 -28.4185 7.69947
-15.1854 -25.7694 4.82699
-12.5517 -34.8114 8.972
1.88931 -37.3264 26.4314
-14.155 -28.3728 7.29007
6.32892 -48.9022 15.5108
3.14117 -51.0538 7.21157
-14.8172 -27.7368 6.23346
4.2674 -47.8284 16.0573
-11.4129 -38.1964 9.25589
20.4997 -52.4111 9.63611
1.861 -46.5632 14.6041
-10.2067 -38.4761 9.83743
-2.61864 -42.7702 12.7547
-13.9082 -25.2811 0.267273
5.72349 -49.4378 11.2747
-15.3028 -27.1941 7.07028
2.26588 -46.8313 17.4038
-12.4044 -35.1686 6.58265
-2.03872 -40.2403 13.2399
0.981944 -46.1491 14.769
-2.46828 -43.6328 12.9185
4.58458 -46.3262 12.4138
-14.8338 -25.6246 3.34573
2.3729 -46.9525 15.2055
-12.1721 -29.0202 8.01089
-4.11716 -43.0213 18.168
4.17188 -47.6469 14.6472
1.31007 -44.4053 12.4295
-14.4711 -27.6376 6.06106
-11.8874 -33.5633 8.89125
[...]
POINT_DATA 10000
SCALARS t float 1
LOOKUP_TABLE default
257.275
212.188
234.385
212.341
215.086
214.018
284.405
210.931
211.242
234.282
237.167
232.085
213.364
212.757
213.043
211.171
247.093
213.063
211.57
210.305
224.535
215.28
210.916
220.053
224.209
256.28
229.696
212.9
238.859
208.956
248.02
220.706
227.337
237.274
218.487
211.573
229.349
210.787
213.369
212.841
252.426
236.028
210.719
211.355
211.706
210.829
211.44
213.915
210.042
228.419
210.922
222.902
227.852
242.442
210.664
221.039
213.445
263.316
216.513
211.137
231.077
225.206
260.789
210.891
215.323
275.053
211.307
213.139
211.853
213.188
212.378
231.651
211.532
230.809
212.24
240.136
208.399
226.971
211.083
221.809
217.605
247.08
226.546
211.754
211.095
211.914
220.223
214.677
228.352
213.264
232.406
241.075
211.185
212.165
234.661
211.739
244.969
245.043
215.453
237.262
220.086
230.461
245.801
211.701
245.314
237.051
210.647
210.685
210.972
212.547
230.94
211.816
212.12
209.942
227.901
215.249
265.396
227.692
238.476
230.154
213.479
211.117
213.232
211.229
234.966
235.002
210.558
214.136
233.834
230.609
213.861
239.928
254.481
209.933
211.466
274.361
227.462
211.356
210.359
276.36
211.603
232.446
212.134
210.618
212.87
213.9
240.187
244.434
242.266
276.949
211.957
236.305
237.394
212.389
211.833
224.776
249.817
216.27
221.247
210.709
244.394
208.728
232.904
209.43
213.646
213.825
216.676
239.443
210.96
263.298
226.265
225.595
211.705
210.96
216.477
211.245
276.383
220.722
229.326
239.076
228.716
227.67
234.349
236.86
235.219
211.195
212.342
209.1
210.775
220.56
217.284
210.861
219.012
208.842
211.504
211.956
267.713
212.531
211.387
242.213
225.678
209.58
253.015
260.956
210.622
214.038
248.818
221.043
234.041
211.025
240.815
268.639
285.214
239.115
234.361
229.787
223.054
226.694
210.88
232.103
210.097
211.76
239.321
210.809
212.111
238.892
227.94
221.601
232.761
218.801
211.821
230.587
226.301
236.043
233.488
248.223
228.166
211.189
238.246
257.33
213.667
211.434
234.923
212.253
210.474
234.768
221.704
225.515
233.898
232.819
220.323
245.252
211.311
210.289
238.04
249.286
236.901
213.123
211.47
237.828
228.88
225.62
238.764
210.909
211.494
218.293
275.916
210.756
266.183
245.694
251.22
212.506
250.262
212.878
210.647
251.195
235.525
210.035
241.776
224.551
218.253
250.666
234.937
211.997
228.085
212.625
213.445
210.579
216.69
210.906
219.274
284.137
210.978
213.415
217.725
227.905
238.407
251.244
236.198
210.959
228.142
212.772
211.051
212.264
211.579
213.273
212.81
231.388
210.59
248.065
241.016
213.429
213.319
215.15
224.014
228.077
210.603
212.167
281.512
227.373
271.815
210.605
211.511
214.66
239.6
220.922
249.303
224.352
230.36
238.921
210.571
213.311
211.509
242.22
224.384
218.14
212.592
233.694
247.745
210.673
230.142
231.008
211.703
229.496
213.122
228.382
210.524
213.914
212.999
233.097
236.059
224.02
246.394
212.058
208.105
228.164
240.858
268.554
231.439
255.377
223.167
212.85
234.277
211.405
228.086
242.872
211.088
220.555
219.162
213.3
217.449
212.174
287.418
213.273
236.462
210.778
239.893
212.426
213.458
212.593
210.686
267.279
212.554
229.573
212.264
212.647
210.382
244.256
223.84
233.197
212.418
208.752
226.967
219.948
212.511
210.447
213.461
242.458
210.963
210.975
211.835
229.193
229.418
227.592
229.476
211.229
234.319
267.037
212.164
211.016
215.646
211.501
243.84
211.192
224.452
225.634
220.74
231.984
211.269
233.622
269.39
211
220.677
213.839
249.341
230.461
245.185
234.023
257.625
216.052
228.147
267.041
225.585
219.81
218.814
255.8
224.555
249.312
212.649
229.002
212.822
216.046
279.869
237.017
214.946
236.945
230.219
209.703
251.096
221.055
222.517
223.396
211
225.726
250.053
215.82
215.057
210.15
213.085
211.03
228.144
249.274
211.519
222.01
272.006
255.337
210.989
210.864
213.138
213.345
238.024
211.676
231.613
229.264
227.061
245.969
220.09
211.787
235.876
273.595
211.453
225.579
212.747
219.223
211.383
226.437
240.101
214.828
213.287
220.272
269.195
227.852
240.285
212.789
233.187
212.786
211.479
243.639
216.719
269.698
235.246
210.355
229.115
229.914
210.671
210.317
218.377
209.999
239.57
213.474
216.643
237.496
211.07
231.451
244.268
282.529
213.827
220.03
213.615
210.753
210.601
225.96
247.135
211.766
243.229
210.48
211.948
211.756
231.995
214.455
213.103
232.778
241.675
239.482
212.635
210.543
239.941
215.47
254.344
221.762
251.471
227.168
211.922
238.117
226.519
210.142
235.244
236.994
233.66
220.512
246.177
263.052
255.193
212.073
273.433
246.643
213.471
242.083
211.434
210.655
211.61
212.525
228.285
211.745
211.158
236.164
218.314
273.798
212.736
216.158
230.955
241.756
226.302
227.517
210.313
212.922
210.521
212.317
236.163
211.005
243.487
213.797
211.42
230.664
210.449
220.29
242.851
215.082
241.4
219.873
242.119
213.146
212.878
213.786
218.484
217.442
216.463
230.8
232.688
211.617
233.859
229.051
228.16
224.12
216.951
232.054
233.493
260.395
211.56
213.274
210.193
212.618
211.316
233.623
220.428
211.825
209.491
264.243
210.478
213.173
227.419
212.871
215.753
235.979
211.785
211.205
229.095
210.485
236.989
265.778
252.711
238.503
221.293
210.167
213.862
247.505
228.87
250.752
212.315
229.329
211.145
226.304
213.83
210.618
233.207
233.517
235.637
210.741
210.42
213.469
210.857
211.746
264.478
219.695
240.855
251.712
233.857
227.407
223.124
245.696
213.409
215.49
219.91
225.493
211.18
231.684
234.133
211.83
211.959
211.9
236.9
210.392
233.599
231.593
210.928
210.085
213.845
210.319
209.935
210.872
213.119
213.222
252.398
212.183
217.114
220.027
211.833
213.734
235.118
251.002
209.289
212.557
211.828
238.804
213.684
223.262
214.567
231.512
238.405
233.972
233.184
212.337
233.398
216.541
209.594
221.696
211.603
212.119
210.592
269.156
233.176
214.328
226.348
210.773
234.866
231.301
211.465
223.185
213.423
211.03
234.227
215.049
211.342
209.889
225.555
232.755
235.79
210.161
210.081
230.959
222.069
227.755
211.264
222.689
230.441
214.891
210.928
247.606
210.722
234.744
232.437
274.965
220.007
219.243
235.529
210.875
228.378
232.516
210.746
212.53
221.559
212.483
210.392
245.296
210.776
238.155
228.122
231.652
212.955
214.954
250.646
230.636
228.321
236.483
266.51
218.112
231.187
229.621
219.047
274.539
230.059
213.119
211.389
209.44
237.074
212.559
237.15
244.183
213.769
227.501
245.406
223.706
219.66
226.037
232.95
240.871
249.802
234.626
214.234
211.507
212.818
225.407
222.372
222.02
229.155
242.7
219.939
258.047
271.851
228.017
211.781
229.996
211.499
212.169
212.775
222.379
218.913
228.975
230.294
213.771
239.718
213.573
233.394
210.149
212.677
247.494
241.256
241.873
239.256
249.431
250.256
212.322
277.186
241.464
246.047
221.365
211.276
241.313
218.649
211.91
241.951
210.323
212.98
212.498
231.97
236.194
212.017
215.567
211.569
212.446
232.296
221.094
241.552
236.035
230.78
211.78
248.46
266.609
215.119
211.147
215.963
246.267
280.297
229.854
211.16
210.812
213.704
212.525
224.729
226.338
263.07
235.196
210.513
209.982
226.599
212.059
236.201
219.149
210.902
278.425
218.495
211.299
210.915
211.665
233.509
243.056
217.313
213.359
211.075
240.405
213.792
234.834
244.825
222.218
211.056
222.518
212.314
219.642
216.673
213.21
234.106
232.899
212.548
221.249
244.431
244.465
209.143
231.283
226.432
229.116
232.181
218.509
210.708
232.037
211.545
234.464
212.789
224.321
212.101
210.545
211.226
231.987
214.361
218.581
210.072
246.879
273.886
212.532
210.999
215.935
223.699
211.139
252.645
221.323
210.278
229.622
212.457
216.608
213.518
212.563
225.58
244.94
213.015
217.074
211.427
237.029
213.667
264.558
237.698
231.567
213.598
252.108
211.827
211.675
240.675
231.881
245.831
208.802
224.837
229.115
212.079
221.459
234.213
234.706
245.944
239.626
217.702
243.218
211.792
212.632
238.495
232.407
210.731
226.153
250.274
225.888
215.568
209.971
211.323
209.9
248.491
210.91
248.019
212.559
223.787
245.443
219.551
211.459
237.743
213.889
210.882
212.989
252.585
212.02
212.142
210.224
215.952
226.194
218.817
212.465
212.823
213.072
234.686
247.087
208.961
220.867
240.894
221.66
211.46
222.507
212.858
213.338
212.305
212.796
230.882
217.997
229.933
250.103
211.914
215.338
210.213
232.639
267.064
254.169
240.785
211.555
211.047
210.191
241.186
258.763
224.909
227.094
213.295
225.09
232.107
211.149
225.415
210.618
213.575
231.922
264.668
213.065
214.807
217.305
243.792
270.884
211.909
209.765
233.295
270.687
238.674
238.012
236.732
228.319
231.91
242.526
230.535
231.099
264.318
215.82
211.639
231.043
232.773
225.185
242.492
241.491
219.582
227.948
251.723
219.599
213.344
230.825
247.798
221.828
209.649
218.923
210.751
237.976
210.183
231.305
248.924
211.569
228.708
239.019
212.109
209.9
244.511
234.967
267.041
210.96
211.193
228.122
235.831
217.022
242.464
235.012
222.399
229.413
210.399
212.024
225.126
274.463
210.905
230.719
238.719
210.69
234.92
241.737
212.517
208.888
213.636
211.955
248.135
213.459
239.714
213.149
263.836
233.808
233.68
242.576
211.886
216.344
245.819
245.136
210.993
210.046
264.329
211.316
251.593
210.714
226.984
223.287
228.705
210.977
228.917
211.941
255.616
210.641
211.3
212.473
210.958
233.307
211.652
212.28
211.049
257.952
232.765
237.92
229.218
210.711
248.54
212.426
212.911
209.076
252.473
219.904
211.713
228.858
225.061
211.898
229.809
210.949
236.178
211.696
225.054
210.56
234.644
219.618
211.603
210.562
235.163
222.619
243.982
240.058
230.917
234.193
259.285
213.92
239.529
211.405
215.201
213.599
248.184
248.293
245.779
237.042
233.129
216.477
242.807
223.735
240.196
213.828
209.899
210.986
209.897
231.164
213.732
235.804
250.559
227.851
211.853
224.07
240.175
209.82
211.172
211.103
251.387
212.435
240.241
213.363
212.614
211.751
231.653
229.883
250.793
211.357
238.421
239.759
211.442
234.488
230.467
226.703
226.087
213.028
246.439
213.368
222.886
211.841
212.007
217.578
228.201
211.831
269.565
214.472
213.094
241.636
212.043
237.08
237.609
245.05
227.459
212.043
234.966
231.601
229.457
213.56
214.839
226.893
269.937
212.037
211.166
221.343
218.387
242.376
253.779
213.487
215.282
212.614
244.424
229.498
247.117
211.275
211.224
239.988
210.637
211.637
233.801
245.969
212.843
213.441
213.672
210.656
267.269
220.728
217.423
216.055
213.86
225.052
210.942
210.848
212.565
276.218
215.379
246.849
210.772
217.084
243.367
211.444
230.734
211.01
213.453
212.411
239.264
222.837
214.214
225.922
210.962
211.276
210.441
278.442
221.126
213.332
210.344
241.339
258.757
210.519
238.038
235.244
211.355
212.259
230.698
222.001
236.571
242.125
217.96
213.351
210.075
237.974
240.452
242.877
210.478
210.729
219.202
211.191
237.314
212.188
211.064
210.5
212.008
236.986
225.243
223.694
213.423
221.13
233.21
256.698
238.69
241.898
212.325
209.749
214.965
212.078
222.824
229.566
234.332
219.362
212.397
271.814
209.306
235.607
233.067
215.015
229.389
210.44
210.183
246.185
232.309
211.382
212.047
231.456
213.645
216.165
210.417
240.846
213.214
222.771
240.595
215.792
210.301
213.132
239.446
220.705
240.201
211.589
254.179
212.154
214.373
213.558
261.82
212.155
227.658
210.845
212.904
225.031
215.159
291.233
276.211
210.694
210.652
221.347
211.09
231.478
223.364
211.254
213.018
218.149
224.373
233.911
210.894
220.284
217.371
261.213
238.099
228.3
227.93
245.968
237.554
230.514
211.482
234.747
223.35
226.115
228.812
232.343
216.13
211.875
221.499
251.639
249.946
226.108
210.134
241.517
257.383
211.788
252.074
211.795
266.929
240.049
237.708
213.049
211.775
211.588
247.037
210.628
211.387
211.552
218.084
212.981
214.16
262.38
210.993
210.11
213.075
216.086
216.376
250.012
217.739
211.357
212.727
235.521
226.265
217.288
222.21
210.812
211.19
211.807
217.877
212.148
228.129
242.849
212.61
211.153
212.398
246.779
226.787
212.748
211.027
248.191
216.163
261.379
217.592
254.517
238.537
210.251
236.719
213.455
248.731
236.813
242.565
213.357
231.414
282.87
229.96
213.065
216.01
264.109
209.95
255.374
244.176
213.112
251.557
232.545
215.726
211.847
211.378
220.836
209.112
220.476
211.598
213.934
229.564
229.071
212.105
226.501
210.334
233.059
210.76
226.83
227.631
212.318
211.53
211.322
237.214
268.118
211.979
210.429
227.29
244.968
270.36
228.055
210.416
221.219
220.407
244.132
236.624
213.387
213.247
213.719
232.151
218.001
259.403
210.714
244.27
223.764
235.513
222.862
220.777
215.857
231.827
212.031
219.137
229.589
209.819
218.538
230.92
218.67
244.726
253.201
247.697
216.884
210.708
212.671
221.076
216.006
217.915
238.682
210.749
219.732
217.797
211.269
268.948
232.717
238.129
233.359
210.644
231.468
272.893
246.364
211.533
211.465
211.874
211.352
224.573
213.356
247.402
228.101
211.589
268.737
240.024
211.742
236.954
212.656
228.803
237.409
213.522
235.32
230.49
212.297
213.772
234.141
212.12
217.549
220.774
211.928
244.62
210.921
228.314
212.641
213.535
250.355
255.102
212.033
264.068
245.732
213.527
228.971
234.822
213.085
217.455
218.639
211.924
227.841
221.911
210.468
221.279
212.054
226.152
232.079
225.464
237.965
244.802
263.742
219.044
252.781
217.003
212.384
237.74
228.534
242.714
219.022
218.106
227.688
242.763
221.914
230.979
211.604
242.508
224.705
226.24
229.905
229.768
213.578
210.728
212.023
209.933
228.524
223.721
227.623
212.887
212.832
213.159
228.328
241.208
211.116
234.335
210.712
216.799
224.106
222.013
213.616
220.618
220.347
213.105
236.154
232.371
233.86
210.487
210.951
221.606
210.985
212.038
282.842
234.451
212.564
213.29
260.739
233.446
230.833
210.304
218.073
233.235
238.951
239.51
232.421
212.302
210.868
244.672
210.914
214.062
226.091
246.419
222.288
244.038
234.964
230.571
212.107
223.339
235.063
221.33
251.645
223.572
235.364
272.097
233.673
213.335
229.009
225.504
221.253
234.278
226.55
214.48
253.043
222.248
268.877
212.278
213.646
216.567
230.477
210.838
241.734
226.357
226.71
211.218
212.635
229.958
211.487
210.823
264.219
235.552
239.361
255.398
233.505
261.767
208.873
244.424
226.167
244.003
211.592
254.993
229.178
250.694
233.792
243.108
210.93
228.884
225.837
231.334
218.483
211.069
222.966
215.697
211.192
258.497
257.205
218.512
211.241
220.734
213.475
245.252
249.959
256.065
219.188
255.583
229.626
233.575
211.341
211.269
226.449
212.666
241.563
226.922
211.146
223.203
211.318
238.47
213.256
234.574
210.466
227.199
233.154
210.537
212.077
233.318
212.097
211.18
235.366
235.184
243.591
239.98
219.698
273.544
210.974
236.032
227.411
228.867
217.035
224.273
245.075
224.647
238.904
211.338
212.452
234.054
240.768
234.402
210.972
212.511
211.309
213.561
253.075
228.177
236.97
223.92
218.448
212.266
209.965
248.777
238.102
210.91
245.058
242.952
210.88
221.257
209.309
212.139
252.165
218.982
218.08
224.471
233.941
211.257
221.326
234.737
235.079
242.82
242.083
231.926
249.028
210.647
212.256
229.314
260.502
225.254
230.669
219.751
215.63
211.845
248.053
266.226
221.505
227.615
279.912
219.387
211.818
216.788
210.736
247.515
211.454
216.406
218.799
212.159
211.318
211.221
223.325
210.518
215.236
219.044
228.376
248.745
211.884
255.237
247.079
237.149
211.987
213.789
213.486
222.683
229.23
225.449
275.136
239.647
227.318
237.338
219.453
226.372
241.337
241.509
222.612
211.309
210.379
217.173
216.078
210.794
210.599
213.202
214.299
235.424
229.555
233.44
210.704
211.407
239.37
224.549
225.326
209.962
216.568
209.581
229.321
228.232
209.493
223.028
210.431
266.502
211.393
212.83
221.796
234.173
210.274
251.912
212.45
236.166
211.195
227.36
219.485
237.208
244.833
231.435
225.66
251.022
213.04
211.902
237.466
243.176
260.48
221.559
254.616
230.841
235.411
239.957
210.257
239.008
225.209
226.427
218.799
212.513
232.837
230.45
213.805
212.946
227.804
216.624
230.63
211.151
217.724
237.475
259.276
235.866
211.272
225.555
240.375
222.184
211.718
227.036
211.119
231.46
245.984
240.494
248.16
212.471
211.327
218.844
213.06
221.595
229.185
232.619
210.612
234.276
212.479
210.972
242.277
242.519
229.517
246.292
211.901
226.432
229.775
222.328
221.041
217.633
212.589
215.825
223.92
213.514
255.348
213.422
220.176
212.073
213.473
231.207
211.551
252.879
210.814
254.986
240.084
233.47
239.312
245.887
210.826
239.31
210.564
238.804
246.566
230.143
210.792
210.695
228.46
235.465
223.744
262.76
236.378
233.158
213.859
212.698
253.461
210.449
227.805
246.273
211.317
211.003
223.833
217.842
231.903
246.689
235.901
211.556
244.564
250.43
235.382
228.242
231.156
210.93
285.017
211.563
214.914
213.888
214.376
221.542
215.494
212.254
211.041
233.627
212.369
235.598
224.868
227.992
212.778
238.398
243.933
220.48
243.69
240.578
211.911
225.7
210.504
223.569
234.144
231.179
213.386
215.369
210.403
238.805
232.83
226.607
211.578
212.273
212.391
211.416
243.82
212.936
240.376
210.829
218.153
255.708
228.532
248.68
232.864
236.612
210.852
211.078
273.562
247.312
213.928
232.038
222.19
256.417
213.802
220.363
212.55
225.942
220.952
238.388
211.322
210.168
210.192
213.675
233.889
210.947
239.963
239.431
213.854
210.665
242.933
278.704
210.239
209.822
238.877
224.458
229.51
218.325
250.306
211.631
217.393
220.723
222.915
218.017
209.504
236.69
211.33
211.912
242.272
245.02
239.646
233.445
219.985
211.463
220.195
211.212
235.349
212.821
212.039
245.233
225.196
230.172
274.621
212.083
231.029
212.965
209.686
227.767
211.639
211.446
231.382
238.468
223.361
212.417
220.959
213.63
217.038
219.714
212.093
211.29
239.695
209.937
221.176
242.935
213.782
211.991
239.552
213.915
250.225
235.054
213.47
210.879
246.493
226.803
267.456
209.621
235.279
247.682
216.241
227.175
216.439
228.92
242.134
209.345
233.403
243.497
210.459
223.504
244.942
242.674
267.213
211.69
219.091
212.293
219.04
213.281
214.401
238.616
220.606
212.782
258.287
245.952
232.052
226.889
212.402
244.426
211.552
240.466
216.936
226.013
267.541
241.825
211.536
222.609
270.748
211.169
216.551
210.945
243.721
210.202
224.065
243.299
240.938
236.177
268.892
240.845
211.993
212.831
211.772
252.07
210.689
244.816
225.387
218.839
247.757
212.903
247.933
209.783
211.802
237.692
255.057
248.606
236.197
232.291
211.767
217.14
209.859
232.987
230.498
227.348
244.135
213.31
211.177
225.167
252.314
211.08
231.447
209.804
254.519
242.473
213.377
234.684
243.869
217.938
213.386
210.154
212.445
210.569
223.826
251.265
217.174
211.806
244.25
249.775
242.193
238.111
218.904
211.908
215.318
210.664
229.354
228.343
211.226
239.366
240.418
211.231
211.429
224.521
240.166
210.22
212.773
215.534
230.607
224.775
241.673
236.885
210.719
211.594
245.779
273.104
209.826
225.64
210.24
210.115
210.41
210.815
263.242
234.009
222.891
239.764
231.84
282.264
243.46
214.197
228.641
210.807
257.206
225.034
218.282
228.178
210.925
224.064
240.939
213.262
247.609
210.969
242.749
224.315
210.765
223.09
223.761
241.515
211.108
266.995
229.757
241.03
212.663
244.974
237.231
261.097
213.081
210.918
235.441
274.431
210.762
229.856
256.504
225.565
210.92
213.919
220.86
237.359
241.582
212.996
247.482
212.825
224.788
233.764
251.614
212.181
222.23
211.554
240.913
238.351
234.029
211.299
227.562
231.865
218.591
249.087
251.84
210.272
213.013
213.679
208.988
227.408
226.814
208.823
212.06
234.565
251.31
211.272
235.795
213.16
266.641
211.446
211.332
238.392
228.564
210.596
248.337
237.936
211.461
240.853
244.691
210.161
209.58
211.463
232.859
213.517
230.588
265.129
213.233
229.612
229.757
212.441
215.905
232.092
234.868
235.048
257.366
244.376
211.126
213.738
232.012
211.383
242.306
237.232
241.729
213.547
240.141
211.604
237.485
247.422
212.251
222.055
212.716
210.877
229.451
277.261
211.18
242.96
219.925
210.868
283.318
223.057
241.032
258.935
211.617
235.336
210.7
212.376
229.327
211.235
210.353
210.152
243.524
211.321
228.353
209.634
209.937
250.669
244.28
210.976
212.291
211.982
221.047
239.065
224.022
212.055
267.109
213.173
210.443
217.991
216.387
211.637
237.165
214.232
225.103
212.794
238.989
245.727
212.188
212.476
236.598
210.288
210.886
246.932
243.273
253.353
214.936
228.377
210.005
291.668
210.621
210.117
227.734
209.284
213.077
211.129
244.886
282.566
211.08
222.815
211.155
221.413
213.188
232.178
213.033
248.271
209.825
211.517
236.249
262.688
222.469
237.43
232.494
240.548
238.252
216.449
243.697
228.686
210.833
247.034
246.695
238.498
211.615
211.334
223.753
213.182
211.113
233.648
221.142
236.41
240.258
229.415
263.418
209.233
216.008
271.412
265.594
222.98
213.323
233.525
215.332
211.323