# vtk DataFile Version 3.0
vtk output
ASCII
DATASET POLYDATA
POINTS 10000 float
-12.5735 -24.7006 5.32098
7.93257 -48.2295 11.8862
-7.75437 -39.2258 10.1837
1.5439 -45.81 14.9132
12.6887 -50.0788 12.0831
-3.50023 -40.02 14.2615
-11.7878 -30.7552 7.79644
24.3277 -48.9341 11.1272
16.3133 -49.4747 10.8271
-12.4058 -31.8074 7.60708
-10.4473 -33.898 7.19818
-13.0303 -31.784 7.2704
0.401881 -44.7028 14.5477
7.84134 -49.3858 12.5901
4.83144 -46.531 13.9442
15.216 -50.5793 10.042
-14.9812 -27.3105 4.72315
-0.569617 -44.3464 13.5167
16.5819 -50.2867 11.2382
17.1864 -47.8096 12.9383
-15.4845 -28.1634 4.44903
1.58568 -45.0816 14.7828
9.05918 -48.691 12.6983
-15.8504 -22.1301 3.69885
-13.1832 -31.3518 8.85365
-15.5883 -25.3532 3.41156
-13.6308 -26.3282 4.57766
-0.0902286 -44.7084 15.1528
-12.1023 -30.3031 7.66002
9.6754 -48.4063 12.5343
-17.2331 -24.9066 2.22454
13.5761 -46.9592 11.7841
-11.7538 -30.3492 6.44033
-13.1919 -26.5997 5.54814
8.94428 -50.3131 9.15296
6.45591 -47.1488 12.6235
-10.9803 -35.4481 7.72705
11.4799 -50.5087 11.7253
15.4857 -49.8223 10.4129
1.60263 -44.2164 13.2403
-14.432 -28.0223 4.15727
-13.9164 -27.9022 4.72392
7.47237 -47.4368 12.7314
6.86907 -49.742 9.68287
9.14113 -47.7853 12.214
-2.31961 -45.9316 10.0202
-11.8594 -33.8046 7.17465
-1.78772 -46.5092 9.88131
19.1281 -48.0809 11.2615
-15.6199 -24.5831 3.82382
11.4155 -47.3321 12.6006
-11.3206 -36.4496 8.73407
-13.0219 -30.4513 7.19303
-14.649 -25.877 4.34176
-1.58295 -43.5522 13.1907
-13.2686 -28.2454 6.0366
2.67741 -46.6408 13.9734
-12.7317 -23.6387 4.51874
-12.0843 -32.0878 8.25432
17.018 -49.9926 10.5955
-10.9573 -36.3142 9.25191
-12.4954 -34.578 8.45135
-9.88661 -29.1524 7.08162
-5.84249 -42.1096 10.1176
-13.2236 -27.2544 6.13439
-10.5961 -25.4588 6.68491
-1.40228 -43.3458 15.6836
-10.71 -36.2761 8.70183
-3.1702 -43.1309 17.9756
1.45066 -45.3407 14.8235
4.58954 -47.9733 13.6552
-11.5444 -30.5235 5.65072
4.56895 -46.9982 12.6378
-11.5127 -29.9312 6.96983
-1.25158 -44.3428 14.4648
-13.0589 -33.2773 4.9432
15.0135 -48.755 10.9977
-17.4915 -23.1521 2.94588
13.2517 -48.001 11.1525
-15.5724 -26.8968 4.25176
-15.8839 -25.1723 3.68094
-14.0578 -27.8495 4.33625
-13.2517 -31.6989 6.70881
2.72799 -47.3607 13.0447
15.3331 -50.1691 10.1477
0.911327 -45.1907 13.6937
-14.4646 -29.3886 7.42514
-4.91245 -43.7545 9.60325
-13.3286 -28.3478 4.88303
3.03204 -46.7606 14.4599
-16.4031 -26.5964 3.87994
-11.4355 -32.0396 7.36977
5.3276 -46.8844 12.457
-3.54867 -43.0667 19.2377
-12.083 -27.951 6.38514
-13.9867 -28.9188 6.16633
-19.3138 -23.7079 2.76081
-11.8733 -34.5243 6.10766
5.92835 -49.1465 9.62432
-17.715 -21.0662 2.95077
-12.9262 -29.8321 6.61428
-11.2095 -27.8034 6.36037
-15.4305 -23.905 4.36769
9.79697 -49.0993 11.0504
-11.9001 -28.9268 6.47682
-14.0409 -29.1912 5.68986
0.66375 -44.3376 13.1922
2.81087 -48.166 9.15066
7.51726 -47.803 12.5673
9.68363 -46.6738 12.218
-11.243 -33.739 7.28554
17.0331 -48.2391 12.1208
15.3784 -49.1727 12.6181
12.0032 -49.6069 11.8071
-11.655 -34.494 8.40549
18.0472 -50.4147 10.1164
-13.5873 -29.8962 4.82389
-6.72352 -38.6691 10.8504
-12.9847 -25.8358 4.71247
-12.1129 -32.9973 7.57875
1.15284 -44.7085 13.5945
1.99737 -46.6977 15.7035
-12.2929 -33.775 7.53049
18.0939 -48.8809 12.7467
-13.2487 -28.4631 6.08261
-15.7617 -27.7116 4.44091
21.6391 -51.3358 10.2606
-2.10091 -43.0652 14.1158
-11.9534 -28.3144 6.26323
-11.6111 -33.2578 8.65703
3.57154 -49.1585 9.1686
-14.7412 -29.4806 4.94283
-12.3195 -26.8954 6.2077
10.4259 -48.4442 12.4461
5.42681 -47.8826 10.7934
-13.6174 -31.1163 5.22414
-12.1645 -35.862 9.13969
17.0144 -49.9915 11.2961
13.0489 -48.8458 11.756
-11.1739 -32.1357 7.20388
6.12549 -46.3923 10.7456
-14.0409 -27.534 4.88715
2.19378 -43.543 13.0637
3.69687 -46.4959 17.0474
-11.7271 -35.2497 9.17585
1.29526 -44.4364 14.5287
-11.472 -30.8231 7.76169
-10.6133 -28.4233 6.48815
-16.5728 -21.4966 3.3085
-11.8872 -28.1161 5.64399
8.5982 -45.9445 12.8541
-15.882 -27.0924 4.29165
-16.2845 -30.6499 3.75092
-0.812451 -43.6604 15.3039
26.5474 -50.0522 11.789
-6.86538 -40.6304 10.0054
-16.056 -24.0317 0.781889
-3.55791 -44.4061 10.1353
2.66451 -46.4286 10.2824
20.9381 -50.4533 11.5116
-14.2884 -26.2013 4.285
11.5631 -48.4291 12.8381
-13.4536 -31.382 5.48182
5.8933 -47.752 12.1764
2.84175 -46.4011 14.6829
1.71373 -45.9525 15.0174
-10.5996 -29.6199 6.4862
-13.3302 -25.4016 4.92671
-2.83411 -44.5185 10.2752
-12.6269 -28.7214 5.36961
-12.1117 -32.1598 7.28192
-8.19495 -41.3332 7.36097
1.27427 -46.4308 15.5275
4.19463 -47.8099 16.5159
-3.587 -45.154 10.3232
11.3296 -49.1557 11.8021
-12.4234 -32.2584 6.25118
-12.2904 -32.5294 6.34298
-12.7793 -30.3804 6.95501
-12.9783 -27.1868 5.34566
-11.4119 -36.685 8.47779
-12.2493 -31.5032 5.90278
-11.1244 -32.5375 8.90984
-11.4297 -28.6181 6.98681
-12.74 -33.9491 8.18524
10.1583 -48.5733 12.2317
-12.1238 -33.0388 8.01445
19.0177 -49.9171 10.6674
6.99581 -47.7562 12.2051
-5.86592 -42.5161 9.91706
-1.56761 -46.2842 9.53806
13.7882 -48.4191 10.3907
-2.57601 -46.3735 10.1232
20.441 -50.2042 11.981
5.01515 -48.2987 16.2789
-11.2736 -35.5351 7.69766
-2.04158 -47.4798 5.98074
1.74602 -45.4037 14.2699
1.84983 -45.7976 12.9641
-12.5183 -31.4901 7.83183
-10.6606 -32.955 7.37238
4.33367 -46.9377 12.9273
-14.5342 -26.8849 4.09959
-14.8102 -32.1081 4.58649
13.6452 -49.0169 12.8392
19.6574 -48.375 12.875
-10.5969 -32.1974 7.33719
-12.2625 -31.2809 8.04481
-11.1576 -31.8963 7.78488
1.00346 -46.3574 16.3151
-16.8915 -20.3104 3.02431
-15.4261 -26.4315 3.95054
-13.0861 -27.4677 4.98633
-10.7067 -34.8287 7.55273
-14.4652 -27.1819 5.06289
-12.4051 -26.8719 1.60933
-9.4988 -38.7329 8.41889
-8.68503 -40.2098 9.42724
7.52738 -48.5654 12.3714
-15.39 -26.035 3.99334
16.692 -50.7883 11.9421
15.3498 -50.798 10.6604
-12.6281 -30.434 6.44029
-9.97504 -37.6041 7.51385
-12.1335 -35.2207 8.32069
-10.8623 -30.5586 7.55053
-18.3644 -24.4144 2.94983
-11.7919 -28.887 7.22112
-11.4821 -35.378 7.26317
4.76686 -48.179 10.9055
6.38074 -46.9303 13.0181
-11.339 -35.7552 9.07511
-12.227 -32.8351 8.21255
-12.5149 -32.2415 6.39285
-14.0693 -27.3921 5.13373
-11.9055 -26.3498 4.41552
-10.7427 -36.044 8.10467
8.57383 -50.4712 12.3206
-12.9651 -31.1647 6.05871
-13.2832 -27.8594 5.45181
8.49508 -48.293 9.90382
11.5834 -51.0445 10.9759
-9.58868 -30.7573 7.53258
15.2965 -48.2451 12.0353
6.26659 -49.0629 9.83229
-14.6832 -31.0276 4.64592
-12.6077 -28.5678 5.707
13.4893 -49.5314 9.74651
-19.8044 -22.5176 2.75922
-11.0946 -34.1913 8.23985
-11.2241 -36.6548 8.2145
-13.5779 -25.7016 4.30383
2.21283 -47.754 10.1154
13.3269 -49.6998 11.9583
-15.154 -28.826 3.95318
-18.0258 -22.4564 3.03406
-13.7222 -28.9922 5.75815
-0.886613 -44.6019 13.4846
0.0381209 -44.8794 16.2131
-11.2021 -33.5245 7.02575
-12.8239 -30.5086 6.04755
-11.6999 -34.3378 7.56128
-13.6336 -33.276 5.09999
-0.721356 -44.1947 13.695
-0.0346343 -44.8592 10.5052
-10.6159 -36.1111 9.28212
-15.4573 -23.3138 3.63664
3.77282 -47.1969 12.8754
-14.9236 -29.0269 4.626
-12.1517 -25.582 6.08564
-13.994 -22.9232 4.49738
0.253 -43.8117 13.7496
-10.1625 -27.5508 6.95333
7.91083 -47.6231 12.7444
0.756763 -43.6597 13.1496
-9.82652 -37.3119 7.57376
-12.3637 -27.7205 5.89192
12.607 -48.1712 12.1952
-17.6101 -24.2346 2.84153
-13.0318 -28.9464 4.8319
-12.8307 -32.1286 7.95346
-17.3217 -24.2709 2.9664
-13.8764 -29.3307 5.13921
-3.19013 -42.9749 18.5862
-9.94245 -37.8597 8.36653
12.8592 -49.2565 10.6888
-1.15836 -44.9283 14.0769
13.3033 -49.9305 10.7037
-12.9633 -25.3203 4.78753
11.2728 -49.3813 10.7403
-11.5958 -33.7902 7.68458
-12.268 -27.3853 3.13621
21.0216 -50.855 10.29
1.02043 -45.8022 14.1049
-10.9845 -34.9183 7.9584
-14.3375 -27.7191 4.68857
-12.5209 -29.4502 7.10491
-14.8773 -24.3409 3.9694
-9.76966 -35.9666 7.87949
1.12879 -46.4054 10.0298
-13.6504 -34.483 4.94137
1.84851 -44.8585 13.032
18.4961 -49.5 11.9052
-1.4439 -43.4671 14.8088
5.01799 -45.4916 13.0564
-1.96331 -43.3454 13.7835
30.8611 -50.7096 10.5481
-11.2235 -34.7009 8.16873
13.8157 -49.3675 12.7097
-12.9999 -32.3534 5.73591
-17.1763 -24.2816 3.43521
4.19394 -47.0977 14.3893
5.84855 -48.5305 13.8653
-2.57742 -41.4986 11.9524
-13.7147 -31.7012 8.27926
-3.66081 -45.1539 9.56393
15.2228 -48.4538 12.3391
3.78044 -46.384 13.1924
-14.4978 -25.2987 4.00425
-9.7962 -37.593 9.0539
-11.6846 -32.3829 5.75804
8.41781 -47.3954 12.445
18.0624 -50.0314 11.8912
2.84337 -46.4344 14.2745
-11.6965 -29.8146 7.49012
-11.9521 -35.6091 8.73337
-13.9725 -26.9736 4.43261
-11.5976 -36.2017 8.55555
-16.2329 -25.9758 2.36508
-19.4745 -26.4324 3.07061
1.60176 -45.6657 17.1972
1.71222 -45.7728 14.707
20.0503 -51.3129 11.2575
-18.187 -22.1328 3.06304
-12.5625 -35.0384 8.62274
-11.7108 -34.3461 6.66073
-0.800174 -43.9981 13.3137
-11.7662 -29.4613 6.66318
-13.3593 -30.4846 6.21432
11.2033 -47.9681 12.0837
-13.0991 -30.8959 7.46063
-12.5726 -28.902 5.80001
6.88686 -46.2097 13.1918
-8.81779 -38.4041 9.26825
-0.676275 -45.0342 13.4298
-12.5807 -33.3734 6.80992
2.07428 -46.8971 16.4151
-0.440622 -42.9971 14.1446
5.64222 -44.8365 13.2913
-11.1484 -28.6686 7.19329
-10.4164 -27.3375 6.80802
-9.28631 -37.187 9.3232
-14.6872 -29.911 4.71403
9.8803 -49.5595 10.5263
12.5797 -48.8863 12.1906
-13.3397 -28.3411 5.3387
-10.6646 -28.7637 7.32305
-12.0287 -30.5789 7.22498
-13.4408 -28.0048 5.53706
-12.545 -29.3956 6.15767
-10.5523 -33.4237 8.0268
1.51962 -35.7148 27.4885
-12.1911 -32.5404 7.95283
-0.462872 -44.7124 15.8141
-9.76477 -40.1937 5.91413
-12.1808 -26.1549 0.388066
3.82634 -46.8968 15.574
-1.35381 -46.2553 10.3411
-12.6296 -28.4785 5.79484
5.17603 -47.3254 14.4299
6.44757 -47.1332 10.8793
6.18177 -46.0354 12.8805
-12.722 -25.4954 5.23762
19.0061 -50.7907 11.4286
-13.4254 -30.0685 5.66275
0.761088 -44.6821 17.7724
-10.769 -33.7657 6.9103
6.05514 -49.1064 12.4408
1.34098 -45.5836 15.3661
7.59818 -46.1931 13.6041
22.3034 -48.7943 11.5705
-12.0936 -28.9255 5.87169
3.46949 -47.3935 15.0988
-11.8295 -31.1402 6.39144
-3.34951 -42.8766 18.2127
-0.100947 -43.7261 14.6772
18.6144 -48.6514 12.2589
-12.7361 -28.0366 5.90885
-7.5189 -41.3952 9.58982
-14.7608 -26.7247 3.90498
4.56684 -46.2104 12.9565
[...]
POINT_DATA 10000
SCALARS t float 1
LOOKUP_TABLE default
254.85
209.766
214.439
212.791
211.919
214.412
232.737
211.188
212.73
233.775
237.311
236.196
213.363
212.414
212.2
215.656
257.89
213.417
211.869
210.859
259.742
213.039
211.897
269.443
224.414
268.382
259.596
213.101
233.719
211.191
275.926
208.052
243.327
251.838
219.173
210.895
232.607
211.382
214.442
212.593
261.976
257.718
211.191
216.638
209.668
214.246
237.073
214.882
210.449
266.273
210.203
224.138
236.96
261.56
213.384
247.185
212.599
262.242
228.847
213.784
220.515
226.579
239.674
214.163
247.006
244.84
212.952
224.67
212.05
212.973
212.345
249.535
211.288
239.372
213.666
254.483
211.706
273.757
210.581
261.845
266.878
260.721
240.603
212.672
215.47
213.177
235.179
217.06
256.3
212.431
264.944
235.947
210.364
211.577
244.99
245.618
275.471
245.276
216.989
275.486
241.765
245.486
262.892
211.628
243.729
249.287
212.86
219.439
211.044
208.279
236.418
209.809
212.149
211.005
227.307
215.765
256.046
211.515
258.847
233.934
213.068
211.874
234.134
211.487
246.714
260.045
215.277
213.824
245.714
225.684
218.863
255.209
246.877
210.93
211.836
252.611
221.115
211.684
210.15
237.307
211.437
256.556
211.85
210.493
221.181
213.164
233.12
244.317
272.607
250.588
210.255
261.491
264.007
213.184
209.73
215.074
284.511
213.936
213.382
211.538
261.865
211.78
250.489
210.188
212.512
212.685
243.589
257.288
213.184
252.328
236.378
232.951
212.209
210.448
212.915
210.469
244.372
243.645
238.942
253.192
225.95
247.271
224.175
240.241
228.709
210.475
230.492
213.509
210.038
215.267
217.126
214.23
213.551
211.492
210.526
232.677
240.671
212.997
212.521
232.037
236.061
212.06
262.917
257.268
212.289
210.888
236.474
230.538
232.891
211.377
275.33
264.282
255.919
234.372
255.231
278.378
226.107
218.712
211.186
264.141
211.806
213.309
243.075
233.241
227.554
235.027
273.264
238.151
236.11
211.57
211.754
221.851
228.949
243.245
254.62
260.979
229.418
212.347
245.946
251.975
216.107
212.115
235.652
209.739
216.047
257.099
249.727
217.272
276.614
228.921
228.053
262.005
214.063
211.275
263.094
274.065
248.895
213.478
211.841
238.465
246.153
234.023
253.22
213.499
211.915
220.451
268.663
212.182
257.913
248.564
262.998
213.299
241.675
211.283
212.604
233.055
248.783
209.961
273.549
256.453
230.843
272.662
253.748
211.863
226.742
213.081
213.626
213.293
258.486
212.885
233.168
268.99
215.15
213.066
231.06
258.045
238.323
265.368
231.587
214.541
254.219
212.4
210.958
213.688
211.622
213.723
213.72
229.336
212.509
248.354
269.693
212.191
212.15
210.075
228.093
217.137
210.664
212.352
264.349
221.83
248.369
210.108
211.529
212.557
235.389
224.25
260.417
225.496
274.366
271.98
211.077
212.86
212.268
274.213
225.09
241.04
213.345
241.997
244.689
209.43
234.774
248.834
211.588
220.266
213.455
239.783
211.029
213.534
211.682
238.757
242.769
220.124
256.861
213.661
210.818
252.649
237.894
237.063
251.203
245.755
230.984
214.595
231.04
212.424
243.995
287.52
211.747
212.645
249.084
212.029
211.158
211.063
254.891
211.838
249.206
211.45
239.436
212.014
212.55
211.722
210.006
248.352
212.05
243.579
212.031
213.448
210.355
248.403
217.413
264.389
211.826
206.675
230.904
242.213
220.646
210.811
212.135
249.737
210.578
213.748
212.466
255.638
254.1
234.559
274.988
211.051
253.132
265.082
215.077
211.987
221.584
210.086
277
210.691
223.361
245.845
228.888
239.787
212.598
234.147
243.88
220.372
252.538
213.341
274.789
240.096
254.917
238.162
271.988
212.097
256.328
261.923
228.826
216.532
217.779
259.835
238.691
254.085
211.899
249.569
213.541
228.121
262.415
210.706
215.376
238.083
235.863
211.519
259.202
213.315
237.105
232.025
212.276
252.924
270.429
209.98
234.649
208.074
212.212
209.147
233.276
263.665
211.653
260.83
273.091
272.439
218.849
208.856
212.654
213.974
245.916
218.12
215.551
221.245
241.984
256.741
229.531
211.048
242.231
286.796
211.585
231.24
212.298
225.363
212.903
267.258
254.917
209.573
212.534
243.658
253.503
240.53
253.773
212.143
243.222
212.379
212.238
261.403
254.49
255.002
271.127
211.875
225.665
239.733
210.021
214.21
211.708
210.701
270.63
212.304
212.513
262.44
212.948
255.763
260.776
260.507
212.52
237.673
212.528
209.843
210.828
228.747
267.46
212.392
258.048
211.961
212.884
216.602
268.925
225.623
212.372
232.598
243.459
257.89
212.867
211.684
267.83
214.528
252.539
219.995
261.308
222.222
211.489
250.559
239.916
210.594
250.461
225.958
255.626
224.443
264.882
248.829
266.632
212.234
259.294
253.362
212.82
250.987
209.899
210.679
216.286
210.064
215.038
213.016
210.071
252.323
232.768
251.38
212.163
220.858
238.584
282.725
213.079
238.417
208.876
212.799
211.22
214.486
233.934
210.471
250.189
213.234
210.292
235.861
210.884
260.607
257.599
236.821
259.607
249.958
281.297
212.006
210.692
213.853
257.243
226.561
216.576
275.666
251.111
212.16
261.769
210.024
218.415
238.891
210.033
242.435
232.642
254.723
215.073
215.728
211.146
212.964
212.08
240.89
232.108
211.22
212.867
236.224
215.577
217.997
239.548
211.402
215.69
232.428
210.842
212.98
247.083
212.165
261.276
275.481
255.613
230.498
230.344
213.954
213.432
262.095
235.233
253.201
212.543
236.948
212.253
226.907
223.988
211.753
253.397
236.49
256.006
211.176
208.778
213.265
213.181
212.596
273.198
241.175
259.396
243.394
250.723
279.318
236.105
249.66
211.843
235.767
268.349
230.776
216.84
221.976
231.254
232.62
211.619
211.677
238.738
212.281
238.741
241.087
212.112
210.335
212.699
210.789
211.491
210.432
209.851
211.849
264.394
213.943
236.731
266.488
211.578
213.003
254.042
287.79
211.498
215.441
210.947
267.225
216.371
239.295
233.504
245.751
233.302
221.622
236.915
210.615
243.328
227.868
211.739
271.889
212.963
213.208
213.76
264.558
275.063
210.993
261.975
211.519
258.735
251.584
210.697
233.976
213.287
212.563
230.395
210.019
211.835
210.618
236.954
241.257
260.509
214.252
214.027
242.867
214.075
234.006
211.222
261.146
263.107
236.112
210.317
242.976
210.719
242.553
247.293
287.964
264.391
253.067
241.866
214.716
228.699
239.709
212.746
212.032
222.707
212.345
209.757
237.504
209.704
250.212
255.847
247.576
212.304
215.268
256.283
249.853
268.728
227.218
243.837
258.726
248.518
254.515
217.059
238.254
254.87
220.717
210.89
211.06
243.953
212.687
269.467
257.746
210.114
232
265.381
211.345
235.242
210.262
234.723
250.893
258.478
237.013
214.467
213.618
218.651
229.61
251.057
232.733
221.762
256.058
220.101
266.892
273.779
231.326
210.352
256.591
214.695
211.896
212.468
216.819
222.894
251.071
215.926
209.73
240.374
212.314
236.426
211.651
213.181
282.281
259.531
259.192
269.823
262.476
274.557
211.417
259.462
244.498
249.731
257.255
210.881
230.995
228.182
211.679
245.312
212.015
212.92
212.267
276.887
263.885
211.552
232.566
217.851
213.328
268.717
210.666
265.572
243.49
233.73
211.906
248.663
278.705
214.729
212.104
209.084
230.772
249.306
239.278
215.038
210.791
217.643
212.563
220.432
231.099
253.357
264.571
213.092
210.25
230.369
213.086
254.083
244.755
213.394
277.448
215.258
212.109
209.705
209.982
285.003
236.179
215.307
212.6
210.612
243.041
212.378
236.547
260.507
219.701
213.794
252.242
212.503
235.407
211.873
211.535
283.264
257.052
211.578
212.535
244.439
244.589
210.119
234.582
263.46
239.775
248.524
215.41
210.492
245.247
213.85
238.699
212.96
243.608
210.525
212.614
212
240.427
211.517
214.006
210.396
269.164
244.581
210.778
211.731
213.413
216.8
211.514
233.957
260.27
214.667
221.942
214.555
231.241
212.46
212.352
247.003
226.16
211.827
280.034
212.9
264.251
212.715
246.498
236.819
259.347
212.419
272.629
210.535
212.571
247.675
234.834
246.372
212.4
217.363
230.761
211.006
210.324
238.399
232.584
272.576
265.882
211.488
256.609
211.749
211.311
247.991
233.597
207.446
222.805
268.832
259.093
211.607
210.177
210.526
211.686
257.98
211.772
258.668
212.896
233.089
259.098
219.712
211
244.06
213.579
211.703
212.718
242.575
213.26
211.92
212.374
227.841
226.399
257.469
211.032
213.194
212.127
267.257
264.571
213.004
245.091
240.98
210.926
212.383
245.095
213.473
212.884
212.299
212.416
266.743
236.305
230.565
247.826
212.658
242.94
211.906
214.519
252.109
271.339
254.659
211.317
210.698
212.198
244.499
274.705
256.795
235.162
213.78
215.954
232.458
210.93
226.223
210.71
212.542
219.935
253.479
212.184
224.926
232.709
245.85
291.126
213.243
209.804
251.756
279.403
231.608
272.001
258.491
257.538
253.346
283.533
240.911
225.022
255.632
212.42
212.749
248.024
233.222
244.845
269.327
257.746
231.61
228.106
256.331
210.254
212.478
219.169
252.142
235.363
213.68
212.647
210.365
252.275
212.069
238.273
256.773
212.251
239.881
238.818
212.587
210.414
270.757
253.31
272.079
210.059
213.978
226.153
230.998
242.539
263.451
245.245
216.71
243.545
211.836
223.275
258.791
265.363
212.805
272.33
262.983
212.218
248.576
244.305
212.579
212.142
235.431
208.77
261.757
213.126
257.874
212.554
266.93
279.404
233.794
271.338
210.086
212.033
266.284
269.6
211.689
211.205
253.961
214.114
244.001
211.443
239.589
235.712
233.627
212.604
283.397
221.322
264.925
213.913
210.966
213.504
214.894
250.84
212.433
213.186
210.573
252.369
239.055
261.292
238.92
229.431
291.283
212.62
212.305
210.625
261.494
220.076
212.32
235.905
234.502
211.197
220.643
212.249
236.641
212.611
216.454
211.698
226.901
229.751
210.548
213.194
245.729
231.352
237.659
252.852
272.034
229.864
255.409
211.968
246.868
212.516
254.427
231.529
247.876
259.504
254.925
250.359
264.658
236.417
276.213
257.38
255.444
211.658
211.614
209.289
210.656
234.91
209.864
241.185
280.917
229.159
211.553
224.569
257.784
211.875
211.087
209.878
242.822
217.549
260.248
213.38
210.456
211.349
234.419
230.207
257.082
212.395
242.855
234.183
208.607
253.506
250.712
257.556
234.446
212.449
259.199
247.507
221.825
213.576
209.291
219.96
238.683
213.525
259.164
214.632
212.347
240.65
212.689
237.76
248.929
262.569
230.651
212.015
235.199
265.998
262.557
212.173
215.323
230.901
277.312
211.954
211.275
258.224
255.849
224.194
251.929
219.141
238.511
215.059
279.343
231.633
254.168
211.286
226.929
252.815
211.296
212.89
279.741
236.924
210.933
213.268
213.326
210.465
270.901
246.387
213.441
212.654
212.898
224.599
216.622
211.907
212.613
274.28
222.824
249.615
215.414
213.328
270.949
212.41
215.04
211.671
212.345
213.265
247.644
251.897
214.409
230.848
211.274
210.944
212.561
256.33
239.595
212.783
211.747
257.449
256.333
212.393
235.748
254.732
212.575
212.459
236.436
246.169
234.469
263.972
219.993
235.6
210.433
247.925
241.305
275.736
210.466
212.932
271.194
210.916
241.302
218.968
210.348
210.519
210.405
278.243
216.439
233.986
213.04
226.574
265.812
255.906
275.753
270.712
213.858
214.01
209.596
212.811
248.303
235.414
247.337
261.815
211.257
251.336
211.805
233.752
233.498
229.991
221.413
209.527
212.71
239.242
219.104
210.228
212.065
234.512
212.668
234.453
209.065
246.204
212.994
231.054
255.923
224.065
215.965
218.505
242.553
256.118
228.877
211.699
264.903
213.212
239.359
212.494
260.898
218.329
236.252
210.893
212.236
212.195
216.581
248.622
236.254
212.327
209.843
218.924
218.032
242.951
225.558
212.012
213.12
238.025
233.248
260.687
213.339
255.329
227.535
232.419
230.988
242.522
235.873
257.69
241.54
229.37
212.609
233.634
243.931
275.269
222.205
259.513
265.447
211.953
217.008
264.413
249.455
243.584
211.216
246.087
256.057
212.16
254.888
213.307
263.091
242.298
258.282
213.216
209.678
211.027
261.01
210.764
239.558
212.218
210.287
213.681
213.185
271.866
238.288
211.478
212.261
214.562
230.063
258.781
266.38
211.407
211.055
237.349
237.372
245.251
233.987
213.127
210.977
210.867
245.295
212.517
227.421
249.935
239.372
212.931
210.599
258.625
259.23
213.55
213.033
288.489
214.244
263.519
210.379
270.616
250.039
210.144
247.503
286.624
239.414
217.708
252.764
212.043
224.808
263.543
234.308
212.197
213.396
257.651
210.245
264.882
247.607
211.755
273.001
245.852
210.564
212.425
212.271
210.962
218.65
241.807
212.542
253.029
218.789
229.288
212.207
255.161
209.441
246.668
209.107
276.955
228.225
212.521
218.336
209.591
282.201
267.619
212.609
211.869
239.383
249.244
240.028
215.377
211.346
236.808
222.26
262.181
260.459
212.788
213.052
211.997
243.514
219.339
275.672
215.197
244.36
241.424
240.184
235.545
240.794
214.131
268.742
211.537
253.58
232.01
212.851
216.801
228.881
264.536
238.969
271.15
256.06
228.143
210.513
215.979
270.067
246.351
224.213
238.218
208.851
241.602
240.745
212.27
247.616
251.884
234.225
237.22
211.3
241.077
263.683
258.836
212.503
221.524
211.147
208.601
226.749
213.343
252.644
225.431
209.262
262.57
250.78
215.273
260.576
213.473
239.027
253.124
212.353
270.44
237.359
211.548
213.14
226.495
210.385
251.616
246.279
210.21
243.224
210.696
269.836
213.083
212.314
259.867
261.629
212.102
255.255
248.738
211.606
276.486
242.778
211.633
247.424
211.675
210.412
237.691
222.362
209.427
235.094
210.612
230.138
232.362
227.456
269.543
234.57
260.051
244.114
254.884
243.006
211.572
248.349
242.451
249.474
229.386
220.951
220.541
261.886
257.368
249.335
212.433
255.341
262.526
242.416
236.832
243.118
212.557
209.634
211.243
211.38
216.81
237.147
243.048
212.798
212.906
212.337
258.063
237.455
217.706
239.098
214.389
254.278
233.523
244.786
210.53
219.666
245.174
217.292
234.59
231.465
254.632
211.353
212.265
227.783
232.706
210.385
285.38
239.158
211.675
212.276
264.185
244.945
237.185
211.464
227.537
225.25
246.104
276.678
235.591
213.4
211.491
262.245
211.297
208.972
212.821
260.71
261.281
266.913
231.366
227.588
209.664
227.397
223.512
219.058
258.534
255.912
232.348
264.91
240.539
212.795
231.393
238.388
211.879
247.399
247.613
216.537
268.261
262.941
270.831
213.491
213.686
215.634
211.9
211.573
242.564
212.528
232.286
210.819
212.289
236.848
212.775
208.708
258.38
237.74
255.563
248.691
226.054
258.998
211.575
238.31
213.605
278.266
209.91
274.237
241.037
247.141
244.553
260.057
213.593
244.637
216.354
233.85
231.235
216.301
241.93
213.747
212.472
263.807
274.378
239.949
213.684
213.837
212.24
264.936
260.756
246.707
213.964
244.306
217.343
233.814
208.107
211.806
216.984
211.728
233.013
229.298
210.576
215.77
211.13
257.111
213.605
251.696
211.596
225.297
272.598
208.975
211.111
261.42
212.025
209.91
254.237
231.418
278.185
271.665
214.483
245.769
211.008
261.155
227.166
238.378
216.617
209.743
259.463
216.024
243.471
213.248
212.799
276.096
260.799
242.955
211.653
212.3
209.247
211.953
272.08
238.884
229.349
267.052
244.27
212.023
212.216
256.447
251.109
212.514
270.779
232.45
213.494
246.862
210.573
210.766
259.57
236.713
243.931
213.347
238.847
216.683
213.708
245.816
242.865
255.215
284.475
234.404
292.154
212.323
212.52
239.52
261.745
260.673
241.901
261.517
214.731
212.592
248.495
249.865
230.812
213.902
250.838
211.009
212.116
226.04
212.722
260.715
211.945
230.593
248.074
213.393
212.096
211.602
231.43
214.165
210.416
249.08
235.673
264.016
210.625
249.791
259.559
228.598
212.501
213.371
224.086
259.239
232.95
215.825
269.235
240.324
255.247
213.268
237.615
229.938
246.663
240.099
238.387
210.762
210.886
231.077
214.46
211.4
211.338
214.756
232.285
257.827
229.576
255.705
221.066
214.751
276.166
216.044
234.03
214.554
250.969
211.777
239.936
221.242
210.556
238.56
210.824
280.147
211.694
213.474
232.353
260.53
210.43
272.062
212.393
231.881
212.073
213.917
261.56
254.27
228.742
233.269
228.582
242.301
213.127
210.929
251.281
261.122
258.237
235.522
250.988
244.757
240.955
259.189
216.543
237.214
234.871
248.893
248.945
209.216
235.453
227.549
214.203
212.33
238.416
243.235
230.201
225.312
217.351
235.037
275.299
263.64
213.584
219.029
254.311
272.494
207.835
256.76
216.774
265.435
271.277
274.369
252.584
211.099
210.976
239.15
213.124
238.831
234.714
266.214
208.849
244.347
212.836
210.95
264.298
243.253
224.779
235.911
212.797
247.272
228.34
230.028
213.722
211.915
215.383
232.861
226.952
213.074
260.496
213.678
249.377
213.606
212.735
238.071
210.878
255.59
210.13
258.606
277.399
263.006
265.761
279.25
215.021
222.898
212.382
255.589
247.379
221.141
212.558
209.415
236.358
237.639
256.968
261.925
239.906
223.579
212.904
212.136
275.935
209.332
221.382
266.623
209.193
211.102
246.27
234.876
287.608
254.297
250.941
211.306
268.4
236.251
240.063
242.415
238.3
212.483
257.947
214.149
211.61
213.932
231.809
231.931
213.078
212.333
211.345
257.055
211.3
276.337
246.521
258.181
212.426
244.225
236.299
230.669
233.264
240.646
212.832
262.013
211.08
215.004
260.346
243.199
212.74
214.391
212.766
266.031
246.835
215.381
211.496
212.62
246.503
212.924
271.218
212.761
252.428
210.438
238.195
247.949
224.777
287.223
260.569
238.53
210.685
213.652
273.098
240.748
213.648
226.198
211.881
257.719
211.841
249.546
212.887
217.629
233.899
273.795
213.244
209.52
210.129
212.548
254.261
211.792
236.928
262.313
211.221
225.062
231.756
283.793
211.666
210.909
236.915
266.843
237.057
235.792
256.215
210.668
251.747
227.255
228.919
214.481
210.354
273.843
211.568
211.937
248.387
243.524
224.353
251.97
224.598
210.563
213.301
212.463
235.564
210.944
210.899
266.223
247.552
230.521
276.844
217.209
243.483
211.656
210.3
215.013
211.529
217.519
234.542
242.426
248.391
210.37
214.328
214.733
227.476
259.905
210.51
213.054
236.371
211.392
234.964
260.697
217.16
212.04
250.184
208.299
263.594
230.056
214.111
210.654
256.217
213.174
257.085
212.956
286.855
278.735
215.836
251.516
233.756
240.479
257.671
210.757
255.307
242.032
207.849
267.332
261.654
238.301
259.83
212.337
245.157
213.719
210.542
211.928
228.658
269.883
214.387
211.601
265.374
256.785
222.236
262.658
212.077
243.586
213.298
229.241
223.826
255.591
259.86
238.939
211.148
240.03
248.25
209.989
218.892
212.01
235.498
219.192
246.601
246.336
244.591
237.273
276.004
243.521
209.107
211.244
219.498
244.919
211.462
236.949
231.56
254.313
259.851
213.45
242.983
210.931
212.926
238.023
273.82
246.502
256.297
255.675
243.397
214.191
213.524
237.102
256.707
215.764
234.706
211.994
213.203
213.438
254.894
208.79
231.288
210.71
275.971
259.495
212.745
237.178
257.18
223.482
212.198
212.349
209.664
214.286
238.886
238.434
236.847
212.944
240.906
260.907
245.552
265.663
237
211.729
261.679
211.516
233.475
242.237
212.863
244.159
259.152
212.035
207.54
278.337
245.615
211.342
212.413
216.023
250.294
222.387
239.718
256.221
210.258
214.721
248.077
247.367
211.198
217.074
211.961
211.413
208.973
211.748
262.024
246.28
212.571
246.054
240.823
252.606
270.454
211.969
251.065
214.168
260.95
232.246
275.813
286.921
211.181
237.164
256.191
212.482
252.24
208.639
247.683
238.519
210.651
226.284
210.213
238.001
212.703
256.987
261.833
258.31
213.697
238.061
258.203
269.509
213.614
217.892
254.445
278.013
211.813
236.068
242.192
215.807
210.557
209.066
218.601
235.435
285.059
213.92
252.433
213.798
291.118
237.78
258.166
212.28
229.439
212.931
241.977
263.225
236.941
213.791
244.825
234.134
220.784
248.273
253.053
211.197
212.776
212.954
214.306
240.061
253.788
214.822
217.174
259.477
248.657
210.095
238.529
212.863
262.362
213.01
219.113
290.425
264.695
208.148
253.911
235.129
212.24
265.766
266.542
209.442
212.015
212.954
249.255
214.734
237.712
270.176
212.541
233.38
258.868
212.807
215.984
226.413
266.695
229.505
247.928
236.839
217.542
212.305
254.147
210.026
240.498
244.02
233.305
212.711
237.368
211.906
250.86
256.9
212.743
277.734
213.543
210.376
243.227
238.732
214.304
233.135
218.629
211.525
265.459
217.853
225.913
265.769
213.635
238.354
215.534
212.66
238.225
210.941
212.399
209.309
256.293
210.88
232.135
212.972
214.659
255.362
248.874
212.875
212.414
212.222
220.623
234.105
236.446
215.324
230.041
212.85
212.503
213.102
220.759
209.353
242.635
229.266
234.614
211.946
213.549
260.886
212.166
212.528
251.078
210.251
210.619
256.642
251.566
233.347
219.4
262.485
211.576
257.377
212.142
211.988
236.364
213.022
213.136
211.635
234.434
242.073
211.92
226.379
215.279
258.955
213.245
229.466
210.786
239.891
212.051
236.635
243.434
254.835
215.547
243.416
241.487
268.616
231.412
211.693
220.262
236.008
210.727
238.774
275.763
239.122
212.042
210.607
226.247
217.641
214.375
253.935
265.729
244.376
254.094
219.666
272.772
211.308
213.459
260.318
250.081
215.084
209.409
243.736
228.649
209.717
219.315
243.632