# vtk DataFile Version 3.0
vtk output
ASCII
DATASET POLYDATA
POINTS 10000 float
-12.5735 -24.7006 5.32098
7.94367 -48.2591 11.8751
-7.69195 -39.2475 10.2031
1.54869 -45.8236 14.916
12.6737 -50.0924 12.077
-3.46367 -40.0767 14.268
-11.7641 -30.7339 7.7891
24.3426 -48.9415 11.1224
16.2989 -49.4665 10.827
-12.4475 -31.6744 7.57858
-10.4473 -33.898 7.19818
-13.0468 -31.7037 7.24606
0.447427 -44.7432 14.5529
7.44096 -49.24 12.5824
4.81919 -46.5189 13.9436
15.0682 -50.5553 10.0158
-14.9812 -27.3105 4.72315
-0.552508 -44.3579 13.5218
16.5726 -50.2859 11.236
16.9745 -47.7736 12.9483
-15.4845 -28.1634 4.44903
1.60861 -45.0966 14.7871
9.03679 -48.7064 12.6934
-15.8504 -22.1301 3.69885
-13.1955 -31.3274 8.83688
-15.5883 -25.3532 3.41156
-13.6308 -26.3282 4.57766
-0.0822426 -44.7178 15.156
-12.095 -30.2892 7.64043
9.65099 -48.4109 12.5365
-17.2329 -24.9077 2.22461
13.5717 -46.9655 11.7734
-11.7674 -30.3446 6.42013
-13.1855 -26.6023 5.55171
8.84091 -50.2901 9.14433
6.43547 -47.13 12.6257
-10.9793 -35.4286 7.72068
11.4981 -50.514 11.7217
15.4647 -49.8165 10.4019
1.61212 -44.239 13.2331
-14.432 -28.0223 4.15727
-13.9164 -27.9022 4.72392
7.41714 -47.4533 12.7281
6.83155 -49.7314 9.67171
9.21856 -47.8144 12.1923
-2.61343 -45.7721 10.0138
-11.8637 -33.7727 7.15655
-1.86996 -46.471 9.87474
19.135 -48.0922 11.2526
-15.6199 -24.5831 3.82382
11.52 -47.3998 12.5807
-11.4012 -36.2845 8.7148
-13.0256 -30.4301 7.17901
-14.649 -25.877 4.34176
-1.59627 -43.498 13.1814
-13.2686 -28.2454 6.0366
2.81845 -46.746 13.9814
-12.7317 -23.6387 4.51874
-12.088 -32.0608 8.24361
17.2655 -49.9813 10.5861
-11.0056 -36.2393 9.21956
-12.4856 -34.5977 8.45859
-9.88661 -29.1524 7.08162
-5.7154 -42.2372 10.1283
-13.2387 -27.2132 6.10296
-10.5961 -25.4588 6.68491
-1.41491 -43.3399 15.6874
-10.7427 -36.2037 8.69124
-3.18959 -43.1022 17.98
1.4519 -45.3425 14.827
4.64837 -47.9864 13.6632
-11.5444 -30.5235 5.65072
4.56614 -47.0017 12.6338
-11.5127 -29.9312 6.96983
-1.22345 -44.3584 14.469
-13.0589 -33.2773 4.9432
15.0177 -48.7338 10.9819
-17.4915 -23.1521 2.94588
13.2541 -48.0026 11.1468
-15.5724 -26.8968 4.25176
-15.8839 -25.1723 3.68094
-14.0578 -27.8495 4.33625
-13.2683 -31.6471 6.69138
2.64898 -47.3314 13.0466
15.241 -50.1446 10.1272
1.01167 -45.2331 13.6981
-14.4543 -29.3498 7.40145
-5.02834 -43.6555 9.59062
-13.3286 -28.3478 4.88303
3.0632 -46.7896 14.463
-16.4031 -26.5964 3.87994
-11.4504 -32.0012 7.36052
5.36525 -46.9232 12.453
-3.54571 -43.0667 19.2422
-12.0749 -27.9526 6.38597
-13.994 -28.9094 6.14716
-19.3138 -23.7079 2.76081
-11.8733 -34.5243 6.10766
5.86952 -49.1488 9.6198
-17.715 -21.0662 2.95077
-12.9261 -29.8208 6.60932
-11.2072 -27.8058 6.36089
-15.4305 -23.905 4.36769
9.795 -49.099 11.0445
-11.9001 -28.9268 6.47682
-14.0409 -29.1912 5.68986
0.667321 -44.3384 13.1926
2.61495 -48.1223 9.14083
7.46151 -47.7959 12.571
9.67722 -46.6788 12.2129
-11.2588 -33.678 7.27519
17.04 -48.2468 12.1228
15.3723 -49.1702 12.6238
12.0187 -49.6148 11.8028
-11.6842 -34.4019 8.3863
17.9975 -50.4022 10.1116
-13.5873 -29.8962 4.82389
-6.75647 -38.6196 10.8423
-12.9847 -25.8358 4.71247
-12.135 -32.9001 7.56012
1.15377 -44.7175 13.5899
2.00508 -46.7018 15.7066
-12.3085 -33.697 7.51181
18.0837 -48.88 12.749
-13.2191 -28.4484 6.08298
-15.7617 -27.7116 4.44091
21.6361 -51.3417 10.2565
-2.08082 -43.0747 14.1204
-11.9801 -28.2596 6.23422
-11.6306 -33.2077 8.63652
3.56987 -49.168 9.15624
-14.7412 -29.4806 4.94283
-12.3248 -26.8904 6.2077
10.4407 -48.4483 12.4447
5.3245 -47.8639 10.7802
-13.6174 -31.1163 5.22414
-12.259 -35.7099 9.10141
16.9931 -49.9964 11.2967
13.0433 -48.8401 11.7602
-11.1848 -32.0924 7.19423
6.06423 -46.375 10.7375
-14.0409 -27.534 4.88715
2.20671 -43.5506 13.0551
3.70263 -46.4815 17.0521
-11.778 -35.1393 9.1458
1.33296 -44.4583 14.5329
-11.472 -30.8231 7.76169
-10.6133 -28.4233 6.48815
-16.5728 -21.4966 3.3085
-11.8872 -28.1161 5.64399
8.63177 -45.9525 12.8515
-15.882 -27.0924 4.29165
-16.2845 -30.6499 3.75092
-0.811975 -43.662 15.3071
26.5368 -50.0471 11.7964
-6.91288 -40.5777 9.99872
-16.0561 -24.034 0.781915
-3.71146 -44.3362 10.1103
2.64133 -46.438 10.2657
20.918 -50.4555 11.5093
-14.3039 -26.1925 4.27842
11.5572 -48.4249 12.8421
-13.4536 -31.382 5.48182
5.87938 -47.7512 12.1707
2.87648 -46.4226 14.6876
1.70663 -45.9452 15.0211
-10.597 -29.6054 6.48214
-13.3302 -25.4016 4.92671
-2.78801 -44.5417 10.2759
-12.6269 -28.7214 5.36961
-12.1302 -32.094 7.2645
-8.22976 -41.2821 7.35235
1.27929 -46.4343 15.5327
4.19855 -47.8044 16.5187
-3.76867 -45.042 10.2977
11.336 -49.1577 11.7993
-12.4234 -32.2584 6.25118
-12.3623 -32.3135 6.29612
-12.7603 -30.3889 6.95479
-12.9428 -27.1994 5.36444
-11.4446 -36.6302 8.48198
-12.2277 -31.5292 5.91846
-11.1303 -32.4923 8.90297
-11.4297 -28.6181 6.98681
-12.7449 -33.9631 8.17968
10.1715 -48.5778 12.2299
-12.1117 -33.0432 8.00945
18.9908 -49.9183 10.6662
6.99446 -47.7582 12.2
-5.85941 -42.5205 9.91222
-1.6889 -46.2137 9.52342
13.7335 -48.4252 10.3979
-2.65986 -46.3416 10.1074
20.4476 -50.2053 11.9803
5.01606 -48.3029 16.2823
-11.275 -35.508 7.68766
-2.04158 -47.4798 5.98074
1.77794 -45.4259 14.2747
1.85122 -45.793 12.9612
-12.5127 -31.4816 7.82978
-10.6589 -33.0003 7.37337
4.31628 -46.8973 12.9291
-14.5342 -26.8849 4.09959
-14.8102 -32.1081 4.58649
13.6533 -49.0168 12.839
19.638 -48.3735 12.8681
-10.5969 -32.1974 7.33719
-12.2774 -31.2291 8.03682
-11.1497 -31.8685 7.77801
1.01415 -46.358 16.3204
-16.8915 -20.3104 3.02431
-15.4261 -26.4315 3.95054
-13.1006 -27.4567 4.97738
-10.7183 -34.7707 7.53914
-14.4652 -27.1819 5.06289
-12.4051 -26.8719 1.60933
-9.53466 -38.666 8.40399
-8.73333 -40.1621 9.4002
7.56637 -48.5646 12.3671
-15.39 -26.035 3.99334
16.6966 -50.7972 11.939
15.2724 -50.8069 10.6651
-12.6281 -30.434 6.44029
-10.0073 -37.5172 7.50062
-12.2192 -34.9658 8.26183
-10.8586 -30.5469 7.54561
-18.3644 -24.4144 2.94983
-11.7783 -28.897 7.22494
-11.4825 -35.3672 7.25715
4.72906 -48.1719 10.8924
6.35821 -46.948 13.016
-11.373 -35.6878 9.06683
-12.1912 -32.8825 8.20584
-12.5149 -32.2415 6.39285
-14.0842 -27.3723 5.12131
-11.9055 -26.3498 4.41552
-10.7562 -35.9876 8.09166
8.57899 -50.471 12.3193
-12.9806 -31.1382 6.04283
-13.2832 -27.8594 5.45181
8.3805 -48.2782 9.89668
11.281 -51.0059 10.9408
-9.58868 -30.7573 7.53258
15.2901 -48.2439 12.0362
6.24123 -49.0558 9.82588
-14.6832 -31.0276 4.64592
-12.602 -28.5551 5.70345
13.4309 -49.5249 9.74233
-19.8044 -22.5176 2.75922
-11.0903 -34.1857 8.23887
-11.2837 -36.5339 8.19135
-13.5779 -25.7016 4.30383
2.15314 -47.7484 10.1059
13.279 -49.6796 11.9504
-15.154 -28.826 3.95318
-18.0258 -22.4564 3.03406
-13.7116 -28.9622 5.74855
-0.85958 -44.6334 13.4827
0.0481483 -44.8829 16.2182
-11.2021 -33.5245 7.02575
-12.8322 -30.4672 6.03913
-11.7018 -34.3064 7.55175
-13.6336 -33.276 5.09999
-0.71669 -44.193 13.6977
-0.28974 -44.799 10.4621
-10.6728 -36.0019 9.26519
-15.4573 -23.3138 3.63664
3.80448 -47.208 12.8711
-14.9236 -29.0269 4.626
-12.1517 -25.582 6.08564
-13.994 -22.9232 4.49738
0.226853 -43.8117 13.75
-10.1301 -27.5692 6.97652
7.87678 -47.614 12.7499
0.767431 -43.6665 13.1469
-9.82783 -37.2979 7.56501
-12.3637 -27.7205 5.89192
12.6033 -48.1699 12.196
-17.6101 -24.2346 2.84153
-13.0359 -28.9369 4.82968
-12.8686 -31.9882 7.92393
-17.3183 -24.2856 2.96578
-13.8764 -29.3307 5.13921
-3.18074 -42.9876 18.59
-9.95498 -37.8324 8.35661
12.7821 -49.2219 10.6535
-1.15861 -44.9147 14.0811
13.2358 -49.9169 10.6989
-12.9633 -25.3203 4.78753
11.1772 -49.3618 10.7318
-11.5897 -33.7496 7.65689
-12.2776 -27.3446 3.13622
20.9933 -50.8466 10.2866
0.995538 -45.7701 14.105
-10.9794 -34.9028 7.95654
-14.3375 -27.7191 4.68857
-12.5241 -29.4468 7.09667
-14.8773 -24.3409 3.9694
-9.77047 -35.9439 7.87469
1.40041 -46.4841 10.022
-13.6504 -34.483 4.94137
1.83666 -44.8196 13.0353
18.5322 -49.524 11.9004
-1.44009 -43.4731 14.8126
5.02784 -45.4989 13.0497
-1.96927 -43.3369 13.787
30.783 -50.6846 10.5376
-11.2304 -34.6462 8.14424
13.813 -49.3609 12.7069
-12.9999 -32.3534 5.73591
-17.1763 -24.2816 3.43521
4.18552 -47.0891 14.3935
5.86362 -48.5336 13.8699
-2.6324 -41.4545 11.9476
-13.7242 -31.6682 8.26604
-3.76221 -45.0827 9.56522
15.2358 -48.4599 12.3376
3.78208 -46.3696 13.1947
-14.4978 -25.2987 4.00425
-9.86656 -37.476 9.03905
-11.6846 -32.3829 5.75804
8.40936 -47.4001 12.4427
18.108 -50.0335 11.8879
2.83641 -46.4369 14.2775
-11.6888 -29.8063 7.48719
-12.0728 -35.3645 8.66054
-13.9725 -26.9736 4.43261
-11.6071 -36.1716 8.53421
-16.233 -25.9772 2.36508
-19.4745 -26.4324 3.07061
1.59416 -45.6576 17.2005
1.71546 -45.773 14.7107
20.0513 -51.3146 11.2544
-18.187 -22.1328 3.06304
-12.588 -35.0081 8.59885
-11.7108 -34.3461 6.66073
-0.787193 -43.9814 13.3173
-11.7432 -29.4644 6.67897
-13.3593 -30.4846 6.21432
11.2001 -47.974 12.0817
-13.0996 -30.8626 7.44161
-12.5726 -28.902 5.80001
6.88989 -46.2125 13.1914
-8.87917 -38.3324 9.24838
-0.677511 -45.0426 13.433
-12.5842 -33.3637 6.80384
2.08204 -46.8929 16.4203
-0.393069 -43.0156 14.1498
5.64276 -44.8402 13.2904
-11.1245 -28.6613 7.19161
-10.4078 -27.306 6.79972
-9.3328 -37.1054 9.3039
-14.6872 -29.911 4.71403
9.67052 -49.4652 10.4852
12.6144 -48.8865 12.1905
-13.3516 -28.3352 5.32997
-10.667 -28.7363 7.31067
-12.0231 -30.5785 7.21847
-13.4431 -28.0076 5.52897
-12.545 -29.3956 6.15767
-10.5477 -33.3992 8.01148
1.5331 -35.7193 27.4895
-12.1884 -32.5158 7.93501
-0.461589 -44.7128 15.8175
-9.76477 -40.1937 5.91413
-12.1808 -26.1549 0.388066
3.82777 -46.8965 15.5753
-1.40217 -46.2315 10.3384
-12.6296 -28.4785 5.79484
5.19133 -47.3249 14.4329
6.4268 -47.135 10.8681
6.20948 -46.0316 12.8798
-12.722 -25.4954 5.23762
19.0057 -50.7843 11.4347
-13.4254 -30.0685 5.66275
0.747417 -44.6633 17.7748
-10.7772 -33.7211 6.89568
6.05972 -49.1095 12.441
1.34048 -45.5834 15.3684
7.63153 -46.1587 13.6065
22.3328 -48.7941 11.5666
-12.0936 -28.9255 5.87169
3.50407 -47.4106 15.1021
-11.8293 -31.1384 6.38905
-3.3512 -42.8768 18.2169
-0.0958084 -43.7293 14.681
18.6253 -48.651 12.2583
-12.7347 -28.0336 5.90712
-7.629 -41.2768 9.5647
-14.7663 -26.7127 3.90135
4.61806 -46.2127 12.956
18.7633 -43.9061 12.5581
[...]
POINT_DATA 10000
SCALARS t float 1
LOOKUP_TABLE default
254.85
209.794
214.32
212.785
211.904
214.399
232.806
211.209
212.727
234.004
237.311
236.393
213.353
212.3
212.203
215.758
257.89
213.417
211.873
210.879
259.742
213.029
211.905
269.443
224.526
268.382
259.596
213.096
233.874
211.205
275.925
208.065
243.485
251.81
219.223
210.892
232.668
211.38
214.485
212.584
261.976
257.718
211.204
216.689
209.635
214.306
237.216
214.92
210.489
266.273
210.204
224.321
237.071
261.56
213.373
247.185
212.557
262.242
228.934
213.824
220.754
226.521
239.674
214.082
247.266
244.84
212.952
224.769
212.055
212.971
212.332
249.535
211.281
239.372
213.66
254.483
211.749
273.757
210.605
261.845
266.878
260.721
240.745
212.683
215.561
213.148
235.401
217.147
256.3
212.419
264.944
236.019
210.372
211.573
244.984
245.775
275.471
245.276
217.003
275.486
241.812
245.482
262.892
211.647
243.729
249.287
212.86
219.481
211.058
208.274
236.503
209.821
212.154
211.011
227.466
215.786
256.046
211.568
258.847
234.09
213.067
211.869
234.285
211.491
246.726
260.045
215.294
213.821
245.959
225.846
218.924
255.209
246.878
210.931
211.874
252.611
221.406
211.687
210.145
237.384
211.468
256.556
211.831
210.494
221.417
213.156
233.12
244.317
272.607
250.588
210.242
261.491
264.007
213.181
209.72
215.126
284.51
214.068
213.47
211.545
261.919
211.784
250.489
210.178
212.5
212.687
243.63
257.288
213.18
252.328
236.519
233.037
212.202
210.446
213.071
210.471
244.372
244.025
238.949
253.042
225.93
247.146
224.237
240.241
228.748
210.476
230.535
213.513
210.029
215.296
217.23
214.192
213.626
211.49
210.521
232.771
240.671
212.985
212.516
232.056
236.046
212.054
262.917
257.268
212.288
210.877
236.474
230.603
232.951
211.37
275.33
264.282
255.994
234.48
255.231
278.378
226.232
218.897
211.168
264.141
211.806
213.288
243.075
233.379
228.098
235.067
273.264
238.119
236.164
211.607
211.764
221.924
229.006
243.245
254.727
260.979
229.543
212.345
246.072
251.975
216.132
212.181
235.652
209.74
216.075
257.099
249.762
217.287
276.614
228.932
228.273
262.005
214.097
211.23
263.094
274.065
248.989
213.475
211.836
238.465
246.224
234.104
253.22
213.498
212.156
220.59
268.663
212.168
257.913
248.564
262.998
213.307
241.505
211.295
212.597
233.13
248.783
209.961
273.549
256.475
231.083
272.651
253.748
211.858
226.824
213.2
213.627
213.302
258.486
212.905
233.395
269.007
215.164
213.079
231.08
258.045
238.388
265.368
231.639
214.613
254.219
212.395
210.983
213.685
211.609
213.725
213.783
229.542
212.499
248.354
269.693
212.193
212.147
210.08
228.194
217.151
210.666
212.351
264.349
221.96
248.369
210.107
211.526
212.558
235.421
224.858
260.417
225.67
274.366
271.98
211.081
212.858
212.274
274.213
225.277
241.04
213.342
241.881
244.689
209.432
234.927
248.834
211.588
220.414
213.456
239.832
211.023
213.526
211.681
238.783
242.852
220.277
256.861
213.766
210.819
252.721
238.007
237.115
251.265
245.755
231.11
214.592
231.186
212.42
243.995
287.52
211.746
212.656
249.084
212.029
211.207
211.051
254.891
211.83
249.206
211.457
239.552
212.017
212.549
211.71
210.011
248.352
212.04
243.598
212.03
213.446
210.353
248.418
217.598
264.418
211.81
206.673
230.889
242.213
220.77
210.783
212.13
249.793
210.573
213.749
212.464
255.704
254.1
234.678
274.988
211.052
253.132
265.082
215.137
211.988
221.877
210.106
277
210.689
223.554
245.92
229.142
239.866
212.599
234.174
243.88
220.631
252.538
213.337
274.789
240.181
254.917
238.237
271.988
212.091
256.49
261.923
228.867
216.579
217.783
259.835
238.809
254.085
211.9
249.719
213.546
228.207
262.415
210.694
215.281
238.155
235.906
211.522
259.202
213.262
237.387
232.1
212.277
253.105
270.429
209.99
234.731
208.072
212.215
209.153
233.276
263.665
211.669
260.83
273.091
272.439
218.628
208.809
212.652
213.969
245.916
218.304
215.678
221.495
242.062
256.741
229.735
211.023
242.23
286.796
211.604
231.341
212.297
225.418
212.939
267.258
254.917
209.565
212.528
243.817
253.503
240.62
253.773
212.139
243.222
212.365
212.282
261.403
254.541
255.002
271.127
211.874
225.867
239.784
210.005
214.25
211.723
210.719
270.63
212.285
212.552
262.44
212.902
255.763
260.776
260.507
212.577
237.691
212.524
209.844
210.868
228.773
267.46
212.396
258.048
211.946
212.861
216.604
268.925
225.704
212.367
232.592
243.448
257.89
212.858
211.675
267.83
214.526
252.539
220
261.308
222.291
211.496
250.601
239.935
210.596
250.446
226.188
255.626
224.577
264.882
248.829
266.632
212.232
259.294
253.362
212.826
250.987
209.899
210.67
216.298
210.065
214.976
213.039
210.078
252.323
233.074
251.38
212.159
220.935
238.638
282.725
213.179
238.404
208.879
212.8
211.216
214.544
233.933
210.505
250.189
213.23
210.294
235.921
210.886
260.607
257.599
236.953
259.607
249.958
281.297
212.004
210.777
213.848
257.258
226.622
216.728
275.666
251.111
212.157
261.769
210.036
218.429
239.065
210.048
242.512
232.69
254.723
215.084
215.762
211.14
212.941
212.06
241.025
232.241
211.23
212.848
236.224
215.673
218.113
239.718
211.408
215.871
232.542
210.855
212.979
247.157
212.184
261.276
275.481
255.613
230.578
230.435
213.966
213.43
262.095
235.341
253.201
212.568
237.017
212.246
226.929
224.361
211.754
253.406
236.485
256.059
211.175
208.782
213.269
213.193
212.606
273.198
241.255
259.396
243.397
250.723
279.318
236.184
249.66
211.841
235.946
268.349
230.843
216.831
222.149
231.254
232.777
211.616
211.694
238.693
212.282
238.738
241.282
212.099
210.337
212.69
210.791
211.518
210.433
209.848
211.848
264.394
214.002
236.847
266.488
211.599
212.991
254.042
287.79
211.507
215.466
210.949
267.225
216.45
239.324
233.417
245.858
233.302
221.756
237.014
210.615
243.422
227.861
211.745
271.889
213.044
213.209
213.774
264.558
275.063
210.995
261.975
211.519
258.735
251.584
210.687
234.042
213.281
212.61
230.467
209.982
211.834
210.621
236.989
241.341
260.509
214.303
214.126
242.937
214.144
234.14
211.223
261.146
263.107
236.228
210.364
242.976
210.682
242.681
247.293
287.964
264.391
253.067
241.99
214.721
228.8
239.751
212.752
212.03
222.751
212.343
209.742
237.591
209.756
250.212
256.043
247.576
212.274
215.408
256.283
249.853
268.728
227.267
243.837
258.726
248.693
254.524
217.083
238.049
254.903
220.746
210.902
211.04
243.939
212.701
269.467
257.746
210.15
232.083
265.381
211.369
235.27
210.268
234.866
250.893
258.478
237.052
214.491
213.645
218.629
229.699
251.057
232.706
221.856
256.058
220.254
266.892
273.779
231.562
210.349
256.591
214.662
211.892
212.47
216.793
222.94
251.071
216.093
209.738
240.358
212.309
236.429
211.651
213.171
282.281
259.531
259.192
269.823
262.476
274.557
211.417
259.462
244.569
249.731
257.255
210.95
230.937
228.37
211.689
245.312
212.077
213.018
212.268
276.887
263.885
211.553
232.681
217.992
213.328
268.717
210.677
265.572
243.518
233.802
211.942
248.663
278.705
214.76
212.103
209.074
230.865
249.306
239.413
215.109
210.819
217.735
212.566
220.436
231.219
253.357
264.571
213.106
210.357
230.485
213.08
254.241
244.927
213.45
277.448
215.204
212.108
209.731
209.989
285.007
236.258
215.085
212.595
210.614
243.041
212.377
236.547
260.507
219.995
213.811
252.242
212.494
235.617
211.877
211.563
283.263
257.21
211.573
212.54
244.481
244.589
210.105
234.66
263.46
239.837
248.461
215.449
210.486
245.284
213.854
238.751
212.963
243.609
210.513
212.619
212.002
240.633
211.562
214.013
210.395
269.164
244.581
210.767
211.733
213.43
217.03
211.513
233.957
260.27
214.637
222.011
214.747
231.288
212.461
212.348
247.03
226.216
211.825
280.034
212.761
264.251
212.716
246.509
236.744
259.347
212.414
272.629
210.549
212.579
247.756
234.82
246.509
212.413
217.786
231.086
211.006
210.337
238.478
232.523
272.576
265.882
211.476
256.609
211.751
211.316
247.991
233.602
207.449
222.833
268.832
259.093
211.679
210.175
210.524
211.689
257.98
211.774
258.668
212.927
233
259.098
219.783
211
244.06
213.579
211.698
212.711
242.699
213.29
211.921
212.359
228.156
226.731
257.469
211.01
213.199
212.128
267.204
264.571
213.011
245.134
241.038
210.961
212.384
245.154
213.471
212.877
212.313
212.413
266.743
236.367
230.564
247.826
212.663
242.94
211.924
214.602
252.109
271.339
254.659
211.302
210.71
212.202
244.519
274.705
256.931
235.329
213.781
216.036
232.458
210.931
226.461
210.701
212.534
220.123
253.479
212.205
224.992
232.973
245.85
291.126
213.237
209.828
251.77
279.403
231.816
272.001
258.491
257.538
253.323
283.533
240.955
225.176
255.632
212.349
212.748
248.074
233.35
244.942
269.327
257.746
231.61
228.338
256.331
210.275
212.477
219.388
252.142
235.343
213.656
212.687
210.365
252.441
212.069
238.73
256.773
212.253
239.881
238.792
212.584
210.42
270.757
253.354
272.079
210.058
214.065
226.374
231.031
242.654
263.451
245.294
216.794
243.519
211.813
223.476
258.791
265.363
212.801
272.33
262.983
212.206
248.576
244.305
212.562
212.14
235.537
208.785
261.757
213.124
257.874
212.55
266.93
279.404
233.765
271.338
210.099
212.114
266.284
269.6
211.649
211.211
253.961
214.127
244.001
211.458
239.67
235.711
233.712
212.692
283.397
221.609
264.925
213.929
210.972
213.502
214.955
250.84
212.43
213.185
210.567
252.369
239.055
261.333
239.077
229.504
291.283
212.637
212.463
210.632
261.494
220.184
212.327
235.982
234.447
211.187
220.584
212.251
236.703
212.635
216.39
211.7
226.901
229.796
210.552
213.206
245.729
231.352
237.754
252.852
272.034
229.949
255.409
211.966
246.977
212.51
254.427
231.518
247.876
259.504
254.925
250.359
264.658
236.557
276.213
257.38
255.444
211.661
211.652
209.31
210.649
234.852
209.842
241.225
280.917
229.406
211.564
224.516
257.784
211.867
211.081
209.884
242.822
217.542
260.248
213.467
210.456
211.342
234.565
230.45
257.082
212.405
242.871
234.183
208.643
253.645
250.667
257.556
234.352
212.45
259.199
247.605
222.067
213.577
209.286
220.155
238.756
213.525
259.164
214.634
212.349
240.684
212.69
237.869
248.929
262.569
230.803
212.005
235.419
265.998
262.557
212.177
215.247
230.967
277.312
211.96
211.273
258.224
255.849
224.35
251.929
219.308
238.562
215.023
279.343
231.7
254.168
211.205
226.992
252.815
211.294
212.897
279.741
236.918
210.902
213.285
213.318
210.465
270.901
246.349
213.475
212.779
212.912
224.776
216.698
211.908
212.611
274.28
223.192
249.615
215.512
213.344
270.948
212.408
215.06
211.678
212.342
213.246
247.69
252.075
214.411
230.768
211.283
210.891
212.527
256.33
239.595
212.786
211.75
257.449
256.333
212.405
235.748
254.732
212.589
212.458
236.443
246.301
234.545
263.972
220.198
235.76
210.423
247.925
241.305
275.736
210.467
212.936
271.194
210.915
241.325
219.146
210.361
210.517
210.396
278.243
216.547
234.117
213.037
226.439
265.812
255.906
275.753
270.712
213.87
214.071
209.6
212.819
248.485
235.437
247.337
261.815
211.261
251.336
211.803
233.809
233.329
230.176
221.442
209.548
212.786
239.242
219.266
210.228
212.066
234.63
212.667
234.541
209.075
246.494
212.997
231.173
256.008
224.109
215.953
218.5
242.575
256.118
228.969
211.698
264.903
213.241
239.32
212.495
260.898
218.585
236.345
210.933
212.237
212.168
216.665
248.622
236.436
212.326
209.842
219.006
218.078
243.07
225.774
212.022
213.114
238.101
233.248
260.687
213.339
255.329
227.588
232.419
231.119
242.626
235.989
257.69
241.54
229.472
212.69
233.657
244.061
275.275
222.405
259.513
265.447
211.939
217.161
264.413
249.455
243.597
211.232
246.085
256.057
212.196
254.888
213.284
263.091
242.413
258.282
213.205
209.674
211.028
261.01
210.755
239.826
212.203
210.284
213.68
213.187
271.866
238.485
211.483
212.304
214.555
230.558
258.781
266.4
211.399
211.05
237.472
237.59
245.251
234.013
213.166
210.981
210.867
245.377
212.511
227.494
249.935
239.588
212.915
210.595
258.625
259.23
213.552
213.038
288.489
214.332
263.519
210.375
270.616
250.039
210.13
247.503
286.624
239.414
218.063
252.764
212.043
224.926
263.543
234.436
212.196
213.406
257.651
210.245
264.882
247.564
211.761
273.001
245.889
210.546
212.43
212.262
210.983
218.672
241.909
212.538
253.131
219.089
229.387
212.205
255.161
209.442
246.668
209.094
276.955
228.243
212.522
218.314
209.591
282.201
267.619
212.613
211.868
239.48
249.244
240.028
215.402
211.343
237.004
222.545
262.181
260.459
212.796
213.049
211.995
243.48
219.45
275.672
215.268
244.36
241.538
240.184
235.67
240.796
214.12
268.742
211.531
253.58
232.182
212.833
216.939
228.961
264.536
239.016
271.15
256.06
228.337
210.518
216.029
270.067
246.351
223.639
238.487
208.848
241.668
240.738
212.274
247.623
251.884
234.236
237.282
211.311
241.278
263.683
258.836
212.511
221.522
211.153
208.604
226.729
213.34
252.644
225.671
209.272
262.57
250.976
215.33
260.697
213.472
239.042
253.124
212.349
270.44
237.36
211.598
213.12
226.659
210.39
251.687
246.279
210.206
243.224
210.696
269.834
213.08
212.315
259.867
261.629
212.093
255.255
248.793
211.598
276.486
242.794
211.623
247.424
211.749
210.416
237.798
222.446
209.43
235.141
210.604
230.276
232.323
227.612
269.543
234.644
260.051
244.316
254.884
243.107
211.567
248.349
242.545
249.474
229.386
221.107
220.58
261.886
257.368
249.335
212.434
255.352
262.526
242.545
236.977
243.166
212.56
209.635
211.248
211.38
216.853
237.201
243.051
212.798
212.897
212.335
258.063
237.611
217.728
239.102
214.393
254.278
233.708
244.928
210.505
219.642
245.174
217.387
234.635
231.538
254.632
211.342
212.257
227.963
233.043
210.384
285.38
239.198
211.671
212.317
264.185
244.945
237.316
211.47
227.703
225.359
246.104
276.678
235.692
213.405
211.494
262.245
211.325
208.962
212.974
260.71
261.281
266.913
231.568
227.618
209.67
227.575
223.694
219.162
258.534
255.912
232.354
264.91
240.539
212.8
231.393
238.466
211.914
247.399
247.613
216.715
268.261
262.941
270.831
213.478
213.688
215.728
211.96
211.581
242.684
212.583
232.416
210.823
212.297
236.957
212.812
208.721
258.38
237.715
255.563
248.691
226.263
258.998
211.569
238.481
213.642
278.266
209.913
274.237
241.071
247.249
244.631
260.057
213.64
244.78
216.38
234.142
231.468
216.334
241.93
213.815
212.491
263.807
274.378
240.017
213.779
213.943
212.234
264.936
260.756
246.707
214.09
244.306
217.481
233.895
208.127
211.809
217.183
211.728
233.294
229.206
210.58
215.872
211.129
257.111
213.605
251.744
211.58
225.326
272.598
208.977
211.109
261.42
211.988
209.911
254.237
231.391
278.184
271.665
214.526
245.769
211.004
261.155
227.405
238.539
216.605
209.754
259.463
216.214
243.471
213.248
212.788
276.096
260.799
242.955
211.652
212.298
209.243
211.949
272.08
239.008
229.435
267.052
244.286
212.052
212.224
256.447
251.109
212.534
270.779
232.45
213.61
246.862
210.568
210.758
259.57
236.692
243.931
213.438
238.828
216.747
213.694
245.823
243.039
255.215
284.469
234.453
292.182
212.33
212.51
239.675
261.745
260.673
242.023
261.517
214.731
212.586
248.524
249.865
231.033
214.075
250.838
211.012
212.117
226.159
212.721
260.715
211.942
230.702
248.074
213.4
212.089
211.604
231.425
214.192
210.427
249.08
235.679
264.016
210.615
249.797
259.559
228.598
212.499
213.372
224.289
259.239
233.129
215.912
269.235
240.324
255.431
213.351
237.901
230.082
246.889
240.178
238.357
210.755
210.89
231.266
214.513
211.414
211.333
214.734
232.503
257.892
229.755
255.705
221.245
214.73
276.166
216.078
234.137
214.578
250.969
211.775
240.05
221.489
210.544
238.717
210.869
280.147
211.687
213.464
232.353
260.53
210.443
272.062
212.395
231.983
212.066
214.027
261.56
254.329
228.812
233.319
228.618
242.301
213.128
210.937
251.281
261.122
258.237
235.734
250.988
244.727
240.957
259.189
216.601
237.234
234.973
248.981
248.951
209.238
235.602
227.557
214.272
212.334
238.434
243.3
230.227
225.146
217.749
235.037
275.298
263.64
213.655
219.236
254.311
272.494
207.835
256.76
217.008
265.435
271.276
274.369
252.584
211.098
211.002
239.172
213.119
238.938
234.8
266.214
208.845
244.347
212.83
210.992
264.298
243.437
224.933
235.911
212.794
247.272
228.486
230.013
213.809
212.002
215.482
233.018
227.075
213.073
260.496
213.647
249.377
213.603
212.735
238.213
210.891
255.59
210.13
258.606
277.399
263.006
265.761
279.247
215.107
222.949
212.381
255.683
247.379
221.377
212.557
209.413
236.328
237.788
256.968
261.925
240.012
223.675
212.91
212.127
275.935
209.332
221.36
266.623
209.194
211.089
246.27
234.923
287.608
254.297
250.941
211.295
268.4
236.251
240.24
242.627
238.37
212.516
257.947
214.204
211.621
213.936
231.988
231.935
213.078
212.339
211.465
257.204
211.316
276.337
246.521
258.181
212.428
244.34
236.477
230.865
233.264
240.646
212.912
262.013
211.114
215.016
260.346
243.484
212.823
214.391
212.774
266.031
246.937
215.442
211.503
212.617
246.559
212.996
271.218
212.757
252.428
210.408
238.356
248.256
224.853
287.223
260.569
238.565
210.686
213.863
273.098
240.775
213.65
226.273
211.96
257.719
211.84
249.546
212.885
217.676
233.899
273.795
213.264
209.522
210.124
212.558
254.261
211.79
237.026
262.313
211.217
225.336
231.828
283.793
211.667
210.912
236.915
266.843
237.048
235.832
256.215
210.705
251.802
227.255
229.095
214.514
210.337
273.843
211.572
211.939
248.458
243.524
224.431
252.004
224.62
210.561
213.284
212.531
235.61
210.945
210.898
266.223
247.696
230.642
276.844
217.238
243.567
211.703
210.321
215.088
211.526
217.498
234.598
242.496
248.391
210.388
214.461
214.705
227.625
259.905
210.528
213.079
236.371
211.392
235.134
260.697
217.235
212.037
250.184
208.316
263.594
230.098
214.103
210.663
256.217
213.256
257.085
212.894
286.859
278.735
215.839
251.516
233.844
240.479
257.671
210.749
255.307
242.114
207.852
267.331
261.654
238.301
259.83
212.337
245.075
213.719
210.618
211.903
228.76
269.883
214.453
211.585
265.374
256.785
222.071
262.658
212.075
243.586
213.37
229.355
224.102
255.591
259.86
238.939
211.154
240.168
248.25
209.99
218.913
212.021
235.621
219.378
246.828
246.657
244.625
237.389
276.004
243.664
209.118
211.247
219.697
244.943
211.478
237.011
231.626
254.313
259.851
213.45
243.076
210.923
212.921
238.103
273.82
246.502
256.297
255.675
243.447
214.21
213.552
237.021
256.707
215.79
234.875
211.999
213.204
213.47
254.894
208.79
231.34
210.711
275.971
259.495
212.743
237.246
257.18
223.672
212.197
212.356
209.661
214.247
239.18
238.434
236.895
212.938
240.967
260.907
245.586
265.663
236.936
211.733
261.679
211.529
233.572
242.279
212.864
244.159
259.152
212.037
207.559
278.337
245.789
211.341
212.405
216.051
250.428
222.527
239.785
256.221
210.258
214.711
248.077
247.367
211.192
217.189
211.96
211.414
208.976
211.769
262.024
246.389
212.617
246.054
240.928
252.606
270.454
211.968
251.189
214.148
260.95
232.496
275.813
286.921
211.179
237.37
256.191
212.485
252.24
208.634
247.683
238.583
210.651
226.65
210.219
238.053
212.75
256.987
261.833
258.31
213.698
238.113
258.203
269.509
213.615
218.026
254.445
278.013
211.818
236.032
242.192
215.704
210.556
209.101
218.752
235.547
285.062
213.918
252.519
213.835
291.988
237.771
258.166
212.278
229.633
212.974
242.1
263.225
237.02
213.763
244.825
234.274
220.873
248.273
253.053
211.23
212.78
212.95
214.314
240.044
253.904
214.83
217.323
259.477
248.657
210.096
238.578
212.864
262.362
213.009
219.248
290.425
264.695
208.137
253.911
235.192
212.213
265.766
266.542
209.455
212.01
212.954
249.255
214.739
237.843
270.176
212.539
233.419
258.868
212.808
216.044
226.564
266.695
229.612
247.928
236.974
217.563
212.304
254.147
210.016
240.498
244.02
233.402
212.728
237.387
211.929
250.86
256.9
212.77
277.734
213.536
210.386
243.481
238.732
214.312
233.234
218.741
211.519
265.459
217.908
226.104
265.769
213.645
238.458
215.541
212.655
238.514
211.003
212.407
209.314
256.419
210.879
232.463
213.009
214.672
255.362
248.874
212.853
212.416
212.21
220.745
234.168
236.474
215.293
230.171
212.839
212.505
213.135
220.805
209.367
242.649
229.464
234.727
211.945
213.715
260.886
212.164
212.524
251.173
210.281
210.622
256.642
251.566
233.347
219.441
262.485
211.58
257.377
212.129
211.99
236.469
213.088
213.134
211.627
234.434
242.205
211.953
226.495
215.31
258.955
213.24
229.505
210.792
239.891
212.049
236.924
243.49
254.835
215.621
243.511
241.547
268.616
231.457
211.761
220.291
236.188
210.711
238.774
275.763
239.26
212.06
210.607
225.746
217.735
214.403
253.935
265.729
244.376
254.094
219.828
272.772
211.31
213.559
260.318
250.081
215.133
209.406
243.747
228.881
209.704
219.418
243.632
214.115
239.099