# vtk DataFile Version 3.0
vtk output
ASCII
DATASET POLYDATA
POINTS 10000 float
-43.4951 -42.1839 8.68102
-41.6092 -38.9306 12.3432
-41.8517 -40.9348 10.5402
-46.3515 -38.6913 14.9742
-41.0759 -38.8439 11.2829
-45.8653 -39.0868 14.3893
-42.2807 -40.9724 9.55273
-41.6541 -38.5059 11.3141
-42.157 -38.4226 11.0446
-42.7822 -42.7408 9.98837
-42.7998 -41.9476 9.30056
-41.8697 -41.7603 9.98153
-45.8177 -39.3195 14.4191
-40.8742 -37.9959 12.1343
-42.5716 -38.4321 13.6687
-40.6014 -37.6239 11.2021
-42.804 -42.6373 9.01798
-44.4227 -38.7723 14.1612
-40.8008 -38.4051 11.2488
-41.3236 -37.6566 11.7979
-46.6687 -43.2325 7.96299
-45.4222 -39.265 14.4144
-41.9069 -38.5332 12.6032
-43.5869 -42.1962 8.74829
-42.849 -42.715 9.98516
-42.7781 -41.895 8.60918
-45.0896 -43.3104 8.47608
-47.6996 -38.9451 15.4629
-43.4126 -41.7352 9.68061
-41.2068 -38.832 12.6729
-45.2488 -42.7857 8.02423
-41.2279 -38.5623 11.0808
-43.4605 -42.0039 9.51327
-42.5638 -41.073 9.59249
-40.7657 -37.1423 10.8032
-41.7593 -38.8573 12.7297
-42.2884 -41.9029 9.94461
-41.409 -39.4268 12.1826
-40.714 -39.1552 11.3777
-42.1639 -39.6591 12.8456
-44.6949 -43.7582 8.43047
-44.1543 -42.3095 8.63632
-41.6313 -39.8887 11.7828
-42.0358 -39.7939 11.5262
-41.084 -40.0991 11.0078
-41.3322 -40.9378 10.7791
-41.8284 -39.9056 10.7526
-42.0857 -40.1554 10.8166
-40.8737 -37.051 11.5974
-44.4171 -42.5955 8.18978
-40.7767 -38.2763 12.4978
-43.0515 -42.3928 10.1914
-42.4353 -41.4005 9.97765
-43.8952 -42.7678 8.84599
-41.8531 -38.9335 12.9208
-43.6976 -43.342 9.41276
-43.6025 -38.6083 13.817
-43.3988 -42.0851 8.50095
-43.0962 -42.9993 9.75176
-40.6758 -37.1942 11.0637
-42.2334 -42.1248 9.96915
-43.1322 -41.3469 10.0742
-42.6571 -40.5725 8.96693
-41.864 -41.1275 10.5954
-42.4102 -41.102 10.0104
-43.0658 -42.4298 9.22444
-47.9197 -38.9115 15.6301
-41.8798 -40.8975 10.519
-51.7651 -38.9354 18.156
-46.6018 -39.4311 14.7393
-42.4401 -38.6539 13.5172
-42.7631 -42.1014 8.97995
-41.5526 -39.0368 12.9368
-42.5644 -42.5302 9.20482
-46.3816 -38.8665 14.7438
-45.9952 -43.7359 7.98161
-40.6873 -38.7436 11.4648
-46.1643 -42.2475 7.96022
-42.1307 -39.1892 11.7329
-47.4878 -43.4044 7.57679
-42.4847 -42.0921 8.5645
-46.2503 -43.227 7.66174
-42.3662 -41.6463 10.122
-41.6059 -39.2467 12.9103
-40.8863 -37.494 11.0005
-43.9623 -38.589 13.8113
-42.5762 -42.8343 10.0808
-41.9987 -40.26 10.6105
-44.2847 -43.1804 8.74528
-44.8119 -39.1584 14.0526
-43.8717 -41.6284 8.60975
-43.6828 -41.9987 9.89364
-41.229 -39.3071 11.9765
-53.4676 -39.0946 19.2415
-44.1566 -42.8085 9.54129
-42.2177 -41.0499 10.1819
-44.2899 -42.5005 8.07295
-45.1399 -43.8648 8.59506
-40.9995 -37.2148 10.7572
-44.408 -42.417 8.29366
-41.8877 -42.4495 9.50353
-42.2538 -42.4602 9.40267
-43.4334 -42.4334 8.71535
-41.6812 -39.1977 11.6295
-43.9425 -43.9576 9.07288
-42.6333 -43.8232 9.21718
-41.787 -38.735 13.2644
-41.2274 -38.5372 11.1232
-42.381 -39.7049 11.9402
-40.8859 -38.2953 12.6359
-42.1927 -42.3932 10.1493
-41.2115 -37.7288 11.7891
-40.4934 -37.8452 12.2566
-42.0865 -39.055 12.0609
-42.3865 -41.8887 10.2633
-41.2537 -39.1033 10.9552
-43.5533 -43.2576 8.57692
-42.0427 -41.8839 10.4086
-41.2103 -40.6953 9.22819
-42.2101 -40.4233 10.1258
-43.0376 -38.1402 13.647
-48.6424 -39.2892 15.6304
-41.999 -41.0147 10.622
-41.276 -37.8232 11.7056
-42.5258 -41.7102 9.99234
-44.4183 -43.5497 8.49955
-41.2743 -39.1531 11.2478
-45.3501 -39.3061 14.176
-44.4015 -41.2926 9.72183
-43.5339 -41.6896 10.1083
-41.3329 -39.4889 10.458
-45.2352 -43.9829 8.02144
-43.1322 -41.6256 9.43546
-41.3698 -39.3392 11.5796
-41.6858 -39.515 10.8041
-43.3867 -42.9201 8.77488
-42.5496 -42.31 10.4025
-40.9721 -38.1245 11.1897
-41.4551 -38.7053 11.6608
-42.125 -41.6139 9.50116
-41.5175 -41.2954 10.777
-48.9691 -43.5619 7.88755
-41.8322 -38.681 13.0237
-48.3279 -39.1014 16.8879
-42.7628 -40.6788 10.287
-45.8815 -39.1847 14.587
-42.7402 -41.8578 9.31931
-44.1818 -43.4869 8.56882
-43.1975 -41.8404 8.59512
-42.6629 -43.0023 8.8461
-41.5669 -38.9645 12.6324
-45.8014 -43.0182 7.80632
-48.6513 -42.7903 7.0178
-47.749 -38.7238 15.4298
-40.5646 -36.7439 11.292
-42.1647 -39.9889 10.5351
-44.7381 -42.1301 8.30416
-41.6578 -40.4835 10.4774
-42.4557 -40.426 10.528
-40.8076 -36.7734 11.34
-42.6113 -41.1935 9.43771
-41.1245 -39.3805 11.7412
-45.9419 -43.3137 8.42355
-42.6009 -39.3128 12.1737
-45.3657 -39.2258 14.1264
-47.0687 -39.3969 15.1375
-42.0635 -41.2526 9.44101
-43.8109 -42.8314 8.8085
-41.8534 -41.4286 11.1354
-43.6868 -43.3288 8.75124
-42.1762 -40.1649 10.1588
-41.6755 -43.1675 9.65018
-48.1559 -39.2248 15.7307
-49.6884 -39.4834 16.8446
-42.114 -41.9881 10.7207
-41.6872 -39.3697 11.8979
-42.6173 -42.3343 9.38602
-42.5033 -40.9719 10.3277
-41.7116 -41.67 10.0277
-42.8667 -42.3094 9.55665
-42.0763 -40.6108 10.5781
-41.8598 -39.263 9.9538
-42.9006 -41.8989 9.53785
-43.5389 -42.3854 9.20784
-42.6612 -41.115 10.348
-41.5058 -38.5339 11.8823
-42.5032 -41.686 10.1415
-40.8001 -37.7645 11.4701
-41.264 -38.3813 12.9985
-43.1997 -40.8629 10.2397
-41.0406 -41.0166 10.2452
-41.4257 -38.5867 10.9615
-42.1653 -40.4779 10.6276
-40.7793 -38.5783 11.9328
-48.8222 -39.3712 16.2268
-42.1848 -40.3722 10.6785
-49.1561 -43.76 7.00621
-44.8895 -38.8691 14.188
-42.1662 -39.9974 12.0366
-42.4666 -41.2466 10.1298
-42.6831 -41.7498 9.45038
-41.3712 -40.0969 12.2952
-43.7975 -42.567 8.69434
-45.9355 -43.6156 7.78962
-41.4367 -37.6635 11.9842
-40.2233 -37.1626 11.1592
-42.5797 -41.7712 9.26053
-42.6687 -40.5783 9.87459
-42.94 -41.2837 9.69758
-49.4902 -39.2777 16.2977
-43.3641 -41.179 8.2155
-45.6322 -43.356 7.84697
-42.4918 -41.9693 9.59765
-41.9627 -41.8348 9.69832
-42.0853 -42.124 9.09142
-44.0188 -43.0272 8.94056
-41.6686 -39.9606 9.94516
-42.7033 -42.0877 10.4179
-41.4817 -40.6519 11.4132
-44.1904 -43.6745 8.69643
-40.9356 -38.1472 11.6966
-40.311 -37.2999 11.0716
-43.0645 -43.3382 9.16208
-41.1954 -39.7834 10.9526
-41.4257 -40.1363 10.776
-42.0526 -41.617 9.38294
-45.0405 -42.8434 8.04097
-42.5633 -41.7166 9.6436
-42.7333 -41.8246 10.0275
-41.4189 -39.6801 10.7381
-41.476 -38.4767 12.9461
-41.7438 -40.2768 10.4592
-42.2874 -42.6958 10.3219
-42.9638 -43.6104 9.28227
-42.3749 -42.0124 9.7426
-44.2667 -42.9001 9.00549
-42.8705 -41.8987 10.1065
-41.4574 -39.7939 12.6391
-42.0687 -41.9226 9.62157
-43.1436 -42.5074 9.40664
-41.9307 -39.4117 11.2205
-41.5939 -40.1291 11.055
-43.1192 -42.7764 9.31821
-41.1093 -37.9499 12.2445
-40.7144 -39.0141 10.9671
-46.0606 -43.3408 7.57928
-43.2219 -41.6822 9.50779
-41.5422 -38.821 10.8509
-43.726 -41.3462 8.36577
-42.5091 -41.6028 9.85396
-42.3664 -41.4742 10.7717
-43.2848 -42.6983 8.52603
-42.3523 -41.8236 11.0105
-42.0758 -38.8769 11.3792
-43.3491 -43.2924 8.13229
-45.7873 -42.7351 7.95397
-43.0399 -41.5743 9.98281
-42.9312 -38.6897 13.6338
-48.3218 -39.3821 15.9534
-42.7988 -42.8143 9.21231
-42.5117 -42.3828 9.65092
-43.1869 -40.8329 10.0971
-46.1461 -43.155 8.06879
-43.9431 -38.6335 13.8886
-42.2161 -37.8731 10.7802
-42.4522 -42.08 10.1769
-44.5164 -42.9068 8.41599
-41.97 -39.1638 12.2256
-47.1293 -44.4177 7.74179
-42.8645 -41.8228 9.12647
-44.8756 -42.145 8.65798
-43.2781 -38.3236 13.6077
-41.7253 -40.7636 9.70538
-41.6142 -38.1783 12.9228
-42.1416 -39.1147 12.727
-41.5615 -40.9386 9.96566
-42.2661 -42.8154 9.36643
-41.5012 -38.4111 11.5047
-47.406 -43.4171 7.54239
-42.5191 -42.2511 9.79318
-42.3284 -41.8765 10.2679
-42.4042 -41.4419 9.30335
-42.9445 -42.4573 8.46229
-52.2262 -39.0752 18.5915
-43.2875 -41.2205 10.2533
-40.7606 -39.8055 10.9213
-45.9838 -38.8392 14.1921
-40.7152 -37.5644 11.1849
-43.1009 -42.0445 9.03178
-41.5013 -38.0752 10.789
-42.1368 -40.9713 10.3873
-43.404 -41.3857 9.68631
-41.0221 -37.9605 11.5169
-43.8321 -38.3175 14.0709
-42.2081 -41.1881 10.2082
-44.4844 -43.3953 8.58598
-42.9964 -42.2284 9.67241
-43.7232 -42.7975 8.55357
-42.7015 -40.8034 9.82615
-41.672 -39.0479 11.0626
-47.6306 -43.0286 7.74559
-41.7713 -38.1728 12.9156
-40.9795 -38.5551 11.8142
-46.8295 -38.9113 15.1308
-42.1275 -39.1377 12.5303
-44.3078 -38.4485 14.0487
-40.0994 -35.7231 10.8131
-42.2396 -42.0704 9.84709
-41.409 -38.8701 12.0662
-44.9295 -44.3679 8.5067
-45.9313 -43.2333 7.89632
-44.6169 -38.6606 14.3247
-43.5754 -39.0733 13.6861
-42.1598 -41.1589 11.0283
-43.8551 -41.9021 10.4634
-41.7878 -38.6883 11.0365
-40.7551 -37.7796 11.9231
-41.7125 -37.5893 13.0553
-42.7111 -41.5024 9.28578
-44.1343 -41.5965 9.87752
-42.4127 -41.4826 9.40819
-41.2558 -38.7381 12.5078
-41.0797 -38.9204 11.5649
-45.6058 -39.1477 14.3584
-43.3437 -41.5266 9.51349
-43.3775 -41.9586 10.3525
-44.5106 -43.0429 8.64461
-41.7184 -40.9204 10.423
-43.8373 -42.1618 8.61501
-49.3972 -41.9441 6.53106
-50.2932 -38.8535 17.5759
-46.2874 -39.1105 14.7702
-40.9057 -39.2805 11.4116
-43.5686 -41.788 8.6121
-42.5316 -41.9651 10.4037
-42.4855 -43.1924 9.36192
-42.6266 -38.3434 13.4562
-43.2359 -41.7987 9.90822
-44.6788 -44.1425 8.77174
-41.6312 -40.9287 11.5023
-43.4717 -41.8313 10.0407
-41.4176 -42.1647 9.11923
-41.2851 -37.9721 12.5818
-42.7271 -41.5577 9.83603
-43.4065 -38.3721 13.7859
-42.4882 -43.1309 9.6431
-49.3934 -39.5504 16.1266
-44.9384 -38.9016 14.303
-41.4609 -37.8594 13.0625
-42.3627 -41.6726 9.87136
-42.6305 -41.2928 9.45832
-42.7389 -40.6043 10.1132
-45.3978 -43.0477 8.02578
-41.6934 -39.3537 11.0438
-41.4865 -38.4469 12.4076
-42.808 -41.0313 9.67005
-42.8927 -41.4771 9.46176
-43.4544 -42.5739 9.65573
-42.9336 -42.0921 9.96598
-43.8726 -42.364 9.22851
-42.0769 -40.3883 9.99624
-50.1783 -35.2272 26.7917
-42.4315 -40.5087 9.96964
-46.913 -38.7583 15.8361
-45.1998 -43.8967 7.83376
-43.6537 -42.6798 9.13172
-47.473 -39.4343 15.7776
-41.522 -40.283 11.0802
-42.8095 -41.3583 9.1965
-44.9909 -39.0542 14.4998
-42.3067 -39.8953 10.2758
-41.3143 -39.5366 12.4687
-43.4801 -41.8863 9.1638
-41.2884 -39.1843 11.5622
-44.2551 -43.1693 9.27378
-50.4496 -38.977 17.8158
-43.1563 -41.1671 9.81986
-41.85 -38.7252 12.9274
-47.0269 -38.898 15.191
-40.8997 -37.4421 12.7288
-40.6091 -37.4368 11.5302
-44.1115 -42.6116 8.93551
-47.785 -39.3219 15.2827
-42.7487 -42.7792 9.3872
-52.2158 -38.8474 18.6082
-45.6677 -38.6218 14.484
[...]
POINT_DATA 10000
SCALARS t float 1
LOOKUP_TABLE default
221.512
214.17
210.657
214.729
211.413
214.594
215.511
211.659
211.407
212.641
217.046
212.739
214.759
214.077
215.025
212.082
218.895
214.671
211.645
213.241
226.536
214.812
214.601
221.004
212.669
222.163
222.63
214.695
214.599
214.951
226.232
211.317
215.62
215.244
212.146
214.832
212.971
213.746
211.505
214.922
222.803
221.795
212.319
211.503
210.243
210.205
210.469
210.382
213.157
225.069
214.831
211.82
212.878
220.092
215.052
215.982
214.744
222.918
213.935
212.177
212.793
212.509
219.831
210.484
212.745
217.472
214.578
210.725
212.385
214.891
215.098
219.317
215.185
217.588
214.647
226.126
211.991
227.022
212.332
229.461
222.44
228.806
212.15
215.15
211.903
214.595
212.183
210.563
220.698
214.644
222.235
213.372
213.212
212.188
215.289
211.943
225.989
221.542
212.147
224.349
215.547
216.225
221.176
212.086
218.13
217.199
215.269
211.388
212.752
215.037
211.9
213.223
214.532
213.302
211.49
210.805
221.922
210.942
217.823
212.285
214.74
214.691
210.446
212.962
212.757
222.376
211.173
214.677
214.522
212.353
211.236
225.7
216.199
211.924
210.674
220.582
210.984
211.736
212.429
215.728
210.194
227.033
215.114
213.408
211.609
214.811
216.934
221.889
222.283
220.048
214.772
227.797
234.289
214.61
212.763
210.841
224.383
210.853
210.853
212.811
216.256
212.453
223.013
213.426
214.596
214.977
216.202
220.352
210.356
220.621
212.164
214.454
214.652
213.777
210.252
212.853
216.367
211.36
212.497
215.256
210.627
213.562
215.461
217.598
211.309
213.107
212.074
212.527
215.28
211.861
211.48
211.163
210.52
213.421
214.261
210.473
233.871
214.564
213.023
212.186
216.06
213.991
221.281
227.624
213.635
212.337
217.368
213.625
214.551
214.203
225.473
227.318
215.039
214.383
218.504
219.323
213.197
210.994
211.024
220.893
212.876
212.114
217.689
210.344
210.315
216.526
226.072
214.789
212.593
210.566
215.175
210.943
211.117
216.797
214.12
218.886
212.245
214.816
214.87
216.201
210.986
210.364
216.739
214.262
210.816
229.362
215.714
211.087
224.231
213.557
210.314
222.506
210.205
211.582
225.207
226.812
212.89
214.959
214.512
217.467
214.618
212.496
225.756
214.645
211.855
211.853
223.238
213.755
227.608
218.318
221.676
214.701
214.498
215.071
214.712
212.91
216.397
212.169
229.715
213.798
211.463
217.133
223.084
212.235
211.762
210.295
214.298
212.093
218.947
211.62
211.13
214.631
212.497
214.637
211.804
221.788
214.533
222.255
213.87
211.004
228.366
215
213.034
214.795
214.386
214.484
213.031
213.497
213.536
222.011
227.015
214.654
214.885
210.272
211.077
211.21
213.67
215.037
217.25
213.579
216.391
214.642
212.123
214.659
215.714
211.292
221.476
210.965
222.012
238.519
212.804
214.814
211.522
222.166
211.022
216.349
214.932
213.286
220.188
211.259
212.618
218.297
214.807
213.687
214.719
214.532
214.485
214.643
215.178
213.432
216.098
212.395
226.105
210.786
214.386
214.759
216.047
214.594
212.886
217.458
212.879
217.538
213.061
214.408
227.129
218.058
214.73
210.378
217.925
214.874
211.741
214.484
218.033
211.961
216.947
212.652
213.888
215.04
214.759
215.151
212.875
219.478
214.847
216.267
212.087
214.471
214.175
215.276
211.338
213.795
214.787
214.073
211.024
217.03
210.496
212.903
214.928
216.122
213.767
211.375
214.413
214.71
222.401
212.472
230.891
213.843
221.5
226.213
210.338
212.759
210.754
210.303
226.031
214.772
212.59
214.423
210.959
213.435
214.899
214.806
218.326
210.525
217.415
214.494
227.557
214.385
218.343
214.068
222.373
211.948
214.265
221.967
211.895
212.337
210.353
217.585
214.033
218.941
211.587
214.754
214.608
211.113
222.248
211.016
210.595
213.301
215.435
211.38
220.18
210.245
212.954
211.54
214.967
213.893
225.08
210.848
210.724
213.855
215.09
211.572
224.149
223.704
214.404
221.498
224.034
220.853
210.499
211.294
214.898
214.862
216.027
211.625
211.987
211.28
211.375
217.547
211.322
210.328
214.808
225.667
212.54
212.353
215.024
211.992
210.971
225.969
226.182
210.473
215.009
212.924
222.314
214.105
216.524
214.964
227.237
215.118
211.234
220.137
215.517
219.564
228.674
215.007
211.505
215.542
213.627
210.305
210.498
212.685
217.154
214.865
211.622
232.538
210.52
220.321
223.282
221.652
211.489
211.371
214.802
212.541
212.372
213.933
218.902
214.843
222.13
214.485
215.238
212.814
226.809
212.035
215
213.85
216.086
225.811
215.164
214.53
236.102
215.928
219.97
221.572
225.746
212.989
211.54
215.711
215.698
214.717
212.228
211.613
217.096
211.194
224.314
221.386
225.525
212.13
226.979
216.994
214.62
219.1
213.722
213.332
211.825
213.282
211.378
210.921
213.749
217.838
210.255
217.903
214.882
211.122
213.927
220.623
211.277
212.571
212.974
215.195
213.993
210.481
211.112
214.492
219.434
214.604
212.682
213.692
212.084
219.761
232.924
211.266
217.058
217.983
217.459
215.013
210.259
214.413
216.681
211.103
211.404
227.625
230.205
212.733
225.909
211.253
211.317
212.915
210.401
216.734
212.155
218.471
211.929
210.353
213.08
215.09
211.654
213.407
212.169
213.072
214.573
217.911
211.802
210.309
212.994
214.922
210.99
213.965
211.146
215.186
212.161
211.805
225.321
226.215
225.223
213.069
210.826
211.94
214.482
219.923
211.064
221.109
214.91
212.406
213.944
211.924
210.203
214.674
216.166
212.611
214.193
213.524
212.376
214.829
212.795
212.463
224.08
212.192
222.353
216.117
217.442
227.137
213.47
218.883
214.789
215.476
230.147
211.445
211.935
212.665
217.529
210.701
214.335
214.633
214.428
213.02
212.813
214.518
214.66
212.504
214.896
212.613
212.34
211.885
213.721
214.75
221.854
212.086
213.14
219.48
214.383
214.691
225.361
220.682
213.704
210.705
214.758
231.361
211.343
212.366
210.639
214.452
232.905
213.528
214.633
213.962
215.134
211.653
213.202
223.035
210.885
214.932
212.466
226.441
228.059
212.444
219.296
214.455
224.939
218.009
214.787
210.659
214.644
211.095
215.59
210.949
215.006
213.202
212.128
215.405
221.733
212.451
211.743
215.753
210.976
212.363
213.431
217.811
222.724
211.254
210.518
217.999
213.195
210.911
218.748
224.628
223.937
218.949
214.338
211.225
211.671
212.79
214.833
212.139
211.643
214.798
214.345
213.184
214.381
220.356
213.697
216.452
210.336
211.968
221.492
221.916
223.791
212.668
227.569
224.834
215.876
216.827
210.797
215.489
214.661
210.762
212.197
213.628
215.134
213.503
223.061
218.713
210.95
212.877
229.911
210.812
212.497
210.34
212.738
222.357
218.997
214.316
210.259
210.354
210.924
213.125
221.704
211.227
211.849
219.598
211.554
217.612
221.408
212.91
212.604
219.814
210.462
212.098
214.649
210.811
212.309
215.862
210.965
211.574
213.314
214.936
216.108
213.628
214.836
222.414
227.292
223.908
225.627
224.377
228.201
212.107
228.56
215.77
218.797
217.742
214.624
212.719
211.363
212.548
230.758
211.999
210.942
214.922
223.112
218.121
212.074
212.892
210.157
215.033
229.655
210.677
224.237
213.796
212.714
210.62
216.358
225.922
210.785
213.161
211.148
214.199
219.241
215.354
211.055
212.981
210.428
215.19
212.843
211.139
221.929
221.947
211.892
214.601
211.029
214.723
213.375
211.403
211.598
226.328
210.983
212.41
211.807
213.624
215.98
216.295
210.271
214.804
213.135
219.807
214.772
222.246
222.263
210.401
211.983
217.393
215.129
214.97
211.845
210.621
229.8
215.592
212.543
210.582
215.623
216.487
213.593
213.563
220.299
213.34
213.048
210.908
213.307
215.465
211.442
213.541
215.033
211.154
213.395
210.672
214.005
214.211
210.81
211.107
213.5
218.033
217.671
214.033
214.611
211.041
210.644
213.943
233.627
217.084
212.534
210.347
210.549
213.43
214.795
215.19
212.136
215.759
214.845
222.59
211.935
229.978
214.819
216.879
214.305
224.769
214.953
225.491
212.654
211.702
213.874
214.391
215.804
212.6
210.478
211.217
214.21
211.226
215.005
213.488
224.774
228.836
210.262
228.811
212.649
213.453
217.5
213.224
212.214
212.356
224.216
217.257
210.47
213.874
213.413
212.856
219.731
212.805
235.452
212.405
212.712
220.203
211.364
215.209
217.659
214.762
213.781
214.937
215.053
214.959
212.949
214.794
211.137
211.457
220.237
215.128
214.881
214.735
215.551
224.051
211.926
212.019
213.631
210.461
214.736
210.711
214.706
214.942
212.026
214.933
230.485
210.883
212.939
218.572
213.527
216.79
211.486
212.457
222.96
226.682
221.008
210.702
212.961
214.143
216.62
220.838
213.835
214.355
214.584
210.501
220.137
212.774
211.428
213.986
214.752
211.78
225.903
212.738
212.496
211.129
218.928
225.562
214.744
212.428
215.537
228.967
211.834
239.942
226.035
220.46
214.561
221.915
215.477
212.059
222.326
210.818
215.442
215.638
214.503
214.425
218.111
219.394
216.272
213.646
224.683
210.274
210.523
210.883
224.01
213.212
211.433
211.675
212.97
215.331
213.03
212.999
220.346
212.104
220.491
215.948
214.804
212.195
229.685
215.764
222.063
211.88
210.885
211.2
214.93
213.443
223.151
214.21
210.307
212.894
214.119
210.834
225.439
220.737
210.581
223.172
228.572
214.929
221.289
220.715
215.16
211.713
212.369
211.166
222.925
214.724
223.174
215.274
221.355
231.822
213.954
239.544
214.534
210.469
219.511
222.876
210.325
212.402
218.12
212.341
239.484
214.826
215.613
212.226
215.927
212.686
218.967
210.378
220.968
212.728
211.742
214.651
210.945
216.4
214.951
214.656
213.271
226.974
234.301
215.713
212.12
210.168
218.451
215.005
210.238
213.284
232.155
211.982
215.194
214.236
210.892
214.178
212.06
215.374
214.606
215.1
210.603
213.184
217.213
210.718
213.953
211.863
233.81
221.632
214.16
216.693
223.44
213.163
219.622
215.094
216.026
214.842
219.316
212.062
222.744
220.477
220.733
218.196
218.376
211.904
219.5
223.051
219.812
214.964
214.869
213.719
213.642
213.938
214.057
216.356
224.823
211.135
213.02
212.209
232.838
213.48
214.897
211.624
218.908
212.191
229.07
211.117
210.239
213.901
213.767
212.028
221.889
215.193
215.521
217.196
214.431
214.571
216.795
232.553
213.233
214.947
226.681
214.31
211.461
214.677
214.599
211.23
213.834
214.869
223.426
214.379
214.792
215.593
215.015
213.854
228.95
226.886
212.199
215.045
212.44
216.503
226.715
214.587
211.246
211.136
228.369
212.736
213.693
218.993
222.158
212.264
228.116
210.345
211.877
210.741
222.647
212.432
219.199
213.628
210.369
217.167
213.854
215.07
217.101
215.561
214.37
214.617
214.68
211.68
223.628
215.603
211.31
210.754
215.24
211.038
211.051
213.02
214.8
228.653
210.949
216.756
212.44
211.396
228.788
215.036
211.333
212.016
214.897
210.641
216.434
214.868
213.853
211.651
212.558
211.083
213.173
221.305
218.272
214.571
211.967
218.756
220.333
214.045
225.182
217.781
215.191
214.738
213.681
213.788
213.024
219.978
212.062
213.28
213.105
219.98
217.552
230.19
212.96
214.849
222.482
214.284
213.445
210.284
212.78
213.393
212.345
218.74
211.567
213.188
214.538
211.716
223.649
221.532
231.5
219.03
210.46
212.002
210.312
215.153
212.497
212.309
215.927
221.241
213.505
223.732
212.37
212.164
212.465
210.206
210.782
211.762
210.702
215.391
211.086
213.907
215.1
212.582
214.734
211.256
214
215.093
214.952
211.29
215.475
211.454
212.583
210.761
216.371
219.117
215.218
211.961
220.922
211.981
214.946
214.984
222.303
210.284
212.441
212.626
214.606
211.553
211.629
219.512
214.191
215.036
213.871
212.327
210.959
213.748
212.919
212.695
214.662
213.92
229.913
217.373
211.137
216.451
211.149
226.951
213.246
215.397
213.666
221.216
226.485
214.045
210.774
213.385
212.596
215.029
211.965
220.781
226.133
214.839
211.171
231.036
229.439
213.676
211.335
215.702
220.33
212.296
218.2
212.272
224.826
216.287
223.608
214.783
213.316
213.339
229.151
214.476
211.454
211.695
210.297
214.509
214.6
222.354
210.879
212.309
210.324
212.425
211.666
218.179
215.124
211.279
214.663
212.361
211.559
215.873
214.331
210.522
214.193
213.064
214.104
214.617
212.942
218.158
211.515
215.056
211.9
223.789
223.925
214.492
215.126
221.887
210.945
222.291
210.44
224.812
216.411
213.509
217.344
220.539
216.914
212.965
220.627
214.768
213.785
221.396
211.493
214.82
210.38
221.222
214.068
221.126
216.223
213.908
229.303
215.648
212.366
212.599
214.481
210.989
212.161
214.436
214.878
213.763
212.632
212.629
215.203
220.582
214.288
219.844
210.588
233.617
211.719
215.11
210.56
211.93
222.937
226.321
212.509
213.378
211.858
222.656
220.888
210.543
214.977
212.184
210.832
219.849
226.046
215.048
214.857
215.088
215.778
210.394
225.496
212.307
217.679
212.674
218.344
212.456
215.818
210.334
221.251
212.262
219.063
212.967
212.414
210.587
213.06
219.778
214.466
224.296
222.273
211.349
211.406
211.221
227.605
217.621
210.526
214.484
213.467
214.085
214.297
213.106
216.837
222.384
214.095
213.725
212.306
211.412
218.414
222.065
211.396
211.043
210.424
212.826
211.235
214.752
220.534
211.605
211.322
221.972
213.874
210.814
215.535
214.587
214.648
217.392
215.065
228.968
214.378
210.706
214.86
213.411
212.711
214.996
218.7
212.953
218.428
212.494
233.095
215.018
214.562
219.65
226.625
215.096
225.679
213.765
214.316
225.89
214.277
214.752
216.889
210.808
214.721
213.122
211.614
213.247
212.003
212.197
213.154
215.291
213.637
218.933
215.335
224.958
214.805
219.737
212.097
212.524
216.528
214.947
219.873
216.292
210.62
210.469
221.45
220.447
223.646
215.087
215.952
228.236
214.134
212.78
213.678
214.6
214.096
211.483
212.916
211.027
212.543
213.147
214.678
214.684
214.884
222.641
212.963
212.253
216.186
212.788
220.144
212.805
213.577
212.349
210.908
217.317
212.44
213.85
214.369
230.281
214.544
214.299
212.125
210.687
214.626
220.271
214.277
215.158
210.891
221.444
217.315
213.831
212.607
211.78
214.128
216.327
228.513
213.6
215.228
213.858
219.094
211.212
212.897
210.864
222.203
218.859
220.002
212.781
211.872
212.752
210.508
212.224
210.944
220.719
217.844
215.504
224.46
216.32
214.589
217.693
213.902
210.351
219.094
216.858
211.571
227.975
226.947
222.74
215.233
214.717
210.29
210.897
213.861
214.22
210.424
214.201
213.402
214.738
211.479
212.706
213.731
220.778
212.796
216.547
219.341
210.615
223.658
212.809
214.262
210.595
219.287
214.811
222.858
215.497
215.735
214.933
226.502
210.242
213.536
212.17
211.674
211.513
212.043
218.126
210.36
214.278
225.532
225.153
214.827
212.145
210.779
214.705
225.436
219.686
218.285
210.621
216.934
210.372
214.444
214.35
215.133
210.967
215.148
212.144
213.433
214.014
210.416
213.5
217.34
215.117
215.019
214.918
211.795
224.534
212.709
212.224
220.922
214.776
212.53
217.658
213.2
223.032
230.986
210.904
217.395
214.595
226.486
212.636
214.621
212.116
210.614
223.403
210.516
217.74
211.654
215.249
229.715
218.573
225.961
214.029
215.031
213.583
214.85
219.545
214.888
212.799
223.366
216.056
215.286
212.241
226.972
223.486
211.945
224.592
226.91
211.262
218.402
213.498
214.488
220.04
214.377
219.294
210.185
214.201
211.593
210.294
214.355
214.405
217.91
215.682
213.224
231.515
213.444
214.996
212.88
220.713
220.903
212.927
219.084
215.277
214.623
215.559
218.645
211.116
211.013
219.572
210.684
210.337
210.495
215.032
218.471
214.728
210.762
216.919
214.864
214.4
213.993
211.844
210.844
211.627
218.576
211.905
222.161
213.337
215.643
219.094
217.993
214.694
214.967
210.21
220.517
213.588
211.358
221.283
216.357
213.574
212.389
211.633
211.329
212.441
215.855
215.836
214.098
213.987
211.164
211.048
215.016
213.848
211.013
210.518
216.135
214.501
220.271
210.886
212.511
229.011
210.769
212.397
211.03
218.331
213.146
212.716
211.912
214.528
212.056
210.338
225.827
214.562
215.088
227.174
221.017
214.015
224.528
215.072
215.277
213
210.638
217.319
213.447
214.772
213.229
212.53
219.499
214.787
213.581
216.499
220.227
219.454
211.252
221.793
212.542
214.274
219.764
211.255
215.855
210.802
215.858
211.173
213.245
213.736
214.2
210.324
215.067
214.764
212.661
212.646
211.062
211.408
219.892
227.29
229.641
211.235
211.314
229.372
224.659
213.55
226.944
211.077
222.769
223.274
221.637
221.032
212.21
212.142
215.047
214.683
215.585
212.68
229.831
213.243
217.454
214.638
212.038
218.95
215.552
212.573
217.194
214.689
219.768
211.879
211.816
211.552
210.606
211.658
210.765
212.758
214.775
221.289
214.51
218.865
214.648
214.802
213.697
211.758
224.15
212.187
224.898
229.835
223.534
222.713
222.533
210.464
214.964
214.342
213.956
217.406
211.601
213.185
211.743
212.452
212.544
224.989
222.844
215.135
212.035
214.437
214.925
225.834
213.104
211.144
218.397
211.654
210.167
218.991
210.88
223.598
217.467
221.037
213.783
223.334
219.635
212.929
211.448
215.423
210.454
223.861
211.207
212.949
213.402
210.94
215.882
216.261
215.147
210.367
214.714
210.596
227.668
227.337
227.67
215.092
212.983
215.105
210.795
217.12
215.72
210.547
230.545
213.903
211.855
223.134
212.085
210.349
215.782
213.76
229.384
214.114
212.145
211.687
214.814
211.755
210.932
216.574
210.3
216.129
214.465
213.112
214.808
211.997
219.346
217.449
216.146
212.39
210.973
224.702
214.907
213.579
213.389
210.388
223.29
214.741
218.498
214.874
211.547
217.498
216.579
211.194
212.646
213.454
215.263
234.702
214.837
214.448
220.71
214.98
210.685
213.04
221.595
212.721
213.726
227.561
222.398
213.877
212.327
226.837
211.233
215.986
217.967
211.23
210.967
214.797
228.296
212.953
214.08
214.298
218.027
214.152
215.494
210.919
212.108
210.462
211.877
215.154
212.666
212.303
219.887
212.092
212.452
221.768
211.554
212.049
215.253
212.03
210.176
212.255
211.944
215.573
214.615
216.423
215.082
210.398
211.431
211.623
220.909
210.809
211.863
219.881
212.737
211.961
222.339
210.143
214.226
217.358
213.241
223.736
214.317
211.551
214.288
238.998
210.64
226.457
210.906
215.398
223.204
211.639
217.186
210.549
231.236
217.2
213.408
216.517
214.581
213.851
222.552
221.363
216.643
221.58
215.023
216.068
214.776
210.26
215.168
211.638
224.058
211.352
213.587
221.848
217.425
211.396
221.544
214.941
216.613
211.132
212.669
210.457
219.539
223.161
223.487
212.644
212.711
219.122
213.664
211.623
215.191
213.368
210.516
214.531
215.692
214.92
213.036
222.719
213.473
214.238
214.064
210.258
216.332
211.153
215.033
212.337
216.638
220.566
214.475
214.227
213.052
215.313
214.744
223.822
220.681
216.999
216.82
210.76
211.155
211.822
214.2
218.243
211.247
214.528
214.585
214.893
210.626
226.384
213.917
212.819
212.883
220.007
218.882
214.857
213.645
219.458
210.438
215.048
212.445
215.003
211.603
212.662
217.394
210.953
215.294
213.071
223.602
215.749
226.533
215.521
215.377
218.773
212.752
212.389
212.729
214.511
217.279
217.328
212.626
210.776
222.012
212.981
212.499
215.043
211.237
213.295
211.171
215.486
226.154
213.371
211.826
217.727
219.457
214.309
211.4
213.642
211.043
213.694
213.692
219.84
215.205
211.347
219.802
214.243
218.037
222.564
214.781
215.071
211.605
218.352
211.892
222.123
228.636
212.869
210.909
216.078
210.664
237.361
211.533
218.726
211.931
212.687
211.361
211.859
215.948
211.687
229.388
218.03
226.886
214.627
211.912
217.644
225.913
214.65
211.994
216.029
228.976
213.296
213.104
220.378
211.164
213.799
210.689
210.767
213.698
215.682
214.704
215.352
211.557
222.17
211.937
222.115
212.097
212.602
211.413
214.362
225.314
212.8
212.053
217.253
213.401
211.491
216.621
217.963
213.069
215.278
214.555
212.554
213.527
215.677
211.736
210.621
220.909
221.358
213.558
214.254
215.151
220.13
214.761
211.147
220.294
221.006
212.099
220.03
215.293
210.673
228.752
221.49
213.217
214.95
214.797
224.442
217.872
215.039
223.027
215.064
214.296
230.311
214.92
210.589
213.198
225.345
211.65
220.199
213.844
211.231
215.174
221.255
211.363
217.088
217.003
213.541
214.718
215.407
211.164
218.473
220.198
215.227
222.721
214.609
210.411
211.954
217.78
212.184
212.419
210.642
214.642
219.435
210.399
212.774
222.457
215.002
215.227
210.893
214.628
211.25
210.973
212.185
213.233
214.811
213.799
211.16
211.828
211.071
219.981
220.461
215.204
214.883
214.795
211.465
215.301
214.917
211.167
213.535
215.033
211.535
211.901
212.424
210.584
214.523
210.535
214.773
212.769
211.289
220.675
212.162
214.963
214.103
214.204
211.722
220.42
219.277
216.171
210.836
219.723
212.361
220.249
214.631
212.571
212.397
211.64
215.057
214.369
216.895
214.671
211.477
210.523
211.733
217.256
214.755
212.597
214.499
221.307
212.272
210.588
215.133
222.2
210.89
214.057
212.541
219.303
212.845
211.248
211.998
211.672
213.809
217.403
225.521
214.862
210.105
210.017
212.86
210.588
210.673
226.463
223.353
220.657
220.225
210.24
225.039
213.932
210.545
222.675
225.832
212.318
214.728
216.222
210.68
212.907
212.887