# vtk DataFile Version 3.0
vtk output
ASCII
DATASET POLYDATA
POINTS 10000 float
-24.5351 -28.8369 6.40401
-20.0405 -33.3256 11.2227
-21.1697 -29.9331 8.69556
-22.2157 -36.7488 14.5379
-18.5821 -33.6282 10.955
-22.1667 -34.999 13.545
-22.2326 -27.9442 7.08522
-14.8047 -32.4905 10.884
-17.5006 -30.4892 10.0972
-21.7339 -29.4437 8.144
-22.3676 -29.4226 7.07936
-21.8806 -30.2728 8.18075
-22.2044 -36.9842 13.9988
-20.0945 -36.4283 11.4337
-20.5837 -37.2278 13.2117
-18.5194 -33.6871 9.73756
-23.1243 -32.4054 7.35782
-21.2807 -35.7917 13.2338
-17.9941 -32.8633 10.3313
-15.7755 -32.7276 11.5999
-23.5557 -35.8759 6.97893
-21.5437 -36.6675 14.0707
-19.154 -33.1981 11.6954
-26.0581 -29.0831 6.18265
-21.9538 -30.1484 8.79748
-24.2409 -29.3233 5.76145
-23.6462 -31.9156 6.87041
-23.2873 -37.1025 14.7174
-23.2352 -29.3689 7.53162
-18.9138 -33.3168 11.8336
-25.4754 -31.6251 6.25228
-16.0443 -28.3989 10.1966
-22.2834 -29.1374 6.96076
-24.0269 -29.2137 7.2207
-18.5942 -32.7663 9.22737
-20.1122 -33.4342 11.8952
-20.5275 -30.2804 8.16113
-19.6335 -35.0114 11.0337
-18.5154 -33.3488 10.0164
-20.4428 -33.7881 12.282
-22.8367 -33.2774 6.89961
-23.2838 -31.6082 6.98345
-19.3548 -33.5816 11.1314
-19.8918 -32.5121 9.81125
-19.0469 -31.8928 10.5162
-20.1894 -31.0056 9.35977
-21.0106 -29.9901 8.18763
-20.7132 -31.6004 9.39881
-17.133 -33.9185 10.5968
-24.4243 -31.8945 6.44762
-17.7687 -33.0063 11.7502
-22.2406 -32.1921 9.01246
-22.4601 -30.1089 8.15297
-23.9184 -31.6173 7.00499
-21.4149 -34.7874 12.371
-23.1802 -31.6874 7.6089
-21.1838 -37.7072 13.3195
-24.6423 -28.4151 5.95558
-21.7411 -31.2927 8.6217
-17.3562 -32.8871 10.355
-21.9113 -30.2377 8.80109
-21.3623 -30.4492 8.73685
-23.9961 -27.1032 6.4745
-20.2474 -30.2756 9.33448
-22.4332 -29.1326 7.37102
-24.3142 -28.933 6.9515
-23.3539 -36.1759 15.1795
-20.6365 -29.6506 8.39844
-28.2907 -38.3215 17.8543
-22.5537 -37.1373 14.3021
-21.191 -37.6434 12.9102
-22.8952 -29.443 6.42363
-20.4938 -34.837 11.9418
-22.3885 -29.3128 7.26591
-22.4207 -36.3341 13.8177
-21.949 -36.2101 7.20967
-18.0789 -32.691 10.5902
-25.366 -31.0905 6.02412
-18.7124 -31.4045 10.8168
-23.9986 -34.0398 6.82948
-24.4906 -31.8138 6.30844
-23.5644 -33.8285 6.54877
-22.4722 -31.059 8.36298
-21.0103 -35.5842 12.1611
-18.0179 -32.1161 9.74707
-21.2446 -35.254 13.0485
-22.1976 -30.9115 8.81835
-20.7437 -31.7027 8.81326
-23.0845 -31.3737 6.99249
-21.6119 -37.9306 13.6662
-24.9234 -32.3465 6.56308
-22.3054 -28.6756 7.48891
-19.1095 -31.969 10.8917
-29.9903 -39.1146 19.1093
-23.5975 -30.2988 7.68166
-22.0709 -29.5971 8.06636
-25.423 -31.9562 5.74075
-21.422 -35.6806 7.81632
-18.7005 -32.2485 9.16293
-26.0874 -30.1142 5.87375
-22.4008 -30.4705 7.60216
-23.0415 -29.6396 7.35791
-25.721 -30.7118 6.76176
-18.7551 -32.0968 10.1243
-23.1301 -31.213 7.53235
-22.9343 -32.1194 7.66917
-20.4676 -34.9376 12.5199
-19.0882 -31.4343 9.00616
-19.1296 -33.6236 11.5889
-17.6709 -31.2763 11.4427
-21.5873 -31.6047 8.28692
-16.3962 -33.4285 11.4695
-17.0294 -35.0744 11.8141
-19.1052 -34.0821 11.258
-21.5972 -30.449 8.74982
-18.5332 -33.1666 9.98724
-23.0447 -33.5623 6.84523
-20.3965 -28.4129 8.49906
-23.7874 -28.4258 6.24136
-21.3834 -30.2496 8.12005
-20.8487 -34.9873 13.0607
-23.8854 -38.1356 15.173
-21.3498 -31.7953 8.7758
-16.7782 -34.3691 11.4102
-22.6291 -29.8983 7.84974
-23.4818 -33.1626 7.09315
-18.8693 -33.8899 10.132
-22.1528 -35.399 13.4065
-24.5135 -29.7963 7.68234
-22.3284 -29.8445 8.29263
-19.0192 -31.0462 9.09152
-22.5685 -34.9636 7.31513
-24.0448 -29.8467 6.92697
-18.5141 -33.1274 11.0865
-19.4368 -31.3868 9.6678
-22.1013 -34.5523 7.46505
-22.5094 -32.9853 9.31766
-17.8614 -33.402 10.2793
-18.5573 -33.6018 10.8048
-21.7272 -28.5468 7.32347
-19.9423 -30.5322 9.77356
-23.7395 -34.1619 6.9895
-19.6316 -33.1322 12.2063
-24.3031 -39.1316 16.4919
-21.6543 -30.1904 8.65482
-21.863 -37.1327 13.9489
-23.0871 -27.8895 7.13991
-23.8449 -29.9097 6.87218
-25.4565 -29.9362 5.86593
-23.0835 -29.1667 6.6693
-18.7914 -32.9839 11.8485
-24.2359 -34.8308 6.8038
-24.8029 -36.1903 5.92407
-23.3405 -36.4746 14.7978
-15.5304 -35.4707 11.0255
-19.6288 -28.6054 8.81832
-24.9128 -31.1647 6.26924
-19.3065 -29.0672 8.92601
-20.508 -30.4341 9.48727
-17.8015 -34.2841 10.4185
-24.3475 -29.3782 6.66292
-18.2366 -33.5068 11.2615
-22.845 -35.3411 7.17209
-19.844 -33.3746 11.1863
-21.6962 -37.3903 13.8539
-22.6976 -37.4408 14.4101
-22.9811 -28.1841 6.70877
-24.6149 -29.203 6.68284
-21.158 -32.2908 9.73972
-22.8645 -29.8732 7.12838
-22.2948 -29.6529 8.14277
-21.1676 -35.499 8.17509
-23.4686 -37.9445 15.0884
-24.8988 -39.5422 16.1036
-21.3503 -34.5556 9.8687
-19.5174 -34.1449 11.0597
-22.4249 -32.3444 7.86068
-21.9822 -31.246 7.93552
-21.1865 -29.0171 7.87907
-23.4046 -29.901 7.33278
-20.4893 -29.9917 8.7866
-21.742 -28.5103 7.19242
-22.0107 -27.534 7.39337
-23.7373 -29.6056 7.39687
-21.5539 -29.7481 8.48318
-18.4072 -32.5524 11.1022
-21.3373 -28.9612 8.06976
-17.9785 -34.2568 10.3816
-19.7549 -34.4124 11.9696
-20.3741 -29.2012 8.72036
-20.2686 -31.7068 8.75094
-17.0312 -29.8577 9.83703
-21.2161 -32.7305 9.39659
-18.5812 -35.1393 11.024
-24.0175 -39.2697 15.8299
-21.1949 -29.5206 8.13623
-21.5698 -42.5659 6.8893
-21.5625 -37.1113 13.548
-20.9842 -33.3578 11.478
-21.9911 -28.9346 8.09579
-22.1635 -28.554 7.24188
-20.6645 -35.2063 11.8148
-24.2789 -31.6654 7.05468
-22.6942 -37.4356 7.0276
-17.1343 -33.0226 11.4806
-15.3809 -34.3296 11.169
-22.1425 -27.9212 6.78213
-21.6052 -27.8114 7.2799
-22.1389 -27.9849 7.14259
-25.0448 -38.3081 15.7841
-25.5637 -28.5329 5.4272
-23.7561 -34.1351 6.61212
-23.9226 -29.7757 7.29475
-22.1735 -31.6382 8.16279
-24.3628 -30.7449 7.26233
-23.3011 -30.6893 6.94092
-20.008 -28.9972 8.01345
-21.3695 -32.1597 8.97459
-19.8935 -33.7638 10.8736
-23.636 -32.098 6.78122
-18.4048 -35.4634 11.0957
-18.5094 -33.933 9.62336
-22.4625 -31.4145 7.50132
-20.2279 -30.991 8.39486
-21.755 -31.5345 8.91089
-22.4816 -27.8676 6.92803
-25.117 -31.4834 5.88974
-23.5819 -29.4469 7.60752
-22.0754 -31.9567 8.54513
-20.5389 -32.9044 9.77681
-18.6895 -33.5455 12.0727
-20.5888 -29.2298 8.68695
-21.7038 -29.627 8.22003
-21.5998 -32.9496 7.74569
-23.6639 -30.2443 7.74099
-24.1378 -29.5284 6.7521
-21.0702 -30.0387 8.2342
-20.8147 -37.5749 11.7266
-22.1628 -32.136 7.89412
-23.1046 -30.6056 7.68578
-19.2796 -31.5705 9.83294
-19.6503 -33.5983 10.0787
-23.1837 -27.4346 6.9723
-16.6235 -32.9387 11.4504
-18.3675 -30.7239 9.38724
-23.0294 -37.1219 6.82889
-23.3392 -30.106 6.96218
-18.3159 -32.1582 9.50088
-26.7178 -29.1714 5.57399
-21.4115 -29.1549 8.09979
-21.3594 -30.8237 9.06123
-23.7746 -29.8715 6.12347
-20.5859 -31.7669 9.46162
-18.1452 -31.2656 10.7105
-23.6539 -33.0781 6.43199
-25.2913 -31.991 6.23485
-23.1434 -31.3686 7.98648
-21.8206 -36.4289 12.6637
-24.3283 -37.3496 15.6854
-21.7152 -31.6424 7.37334
-22.4805 -32.4193 7.81069
-21.2591 -28.6948 7.95807
-22.8163 -37.0887 7.26189
-21.7436 -35.6343 13.3602
-19.7926 -30.2222 9.03305
-21.0741 -30.2947 8.53788
-25.1984 -30.763 6.43594
-19.75 -33.206 11.645
-23.2638 -34.5163 6.95229
-23.9295 -28.0075 6.8219
-26.055 -29.3476 6.48872
-20.176 -33.5965 13.0605
-22.9786 -27.8154 6.58881
-18.6678 -33.3159 12.0559
-20.1873 -32.4288 11.8751
-21.116 -31.3219 8.1206
-23.2077 -30.9696 7.63017
-17.8978 -32.4341 10.819
-25.2788 -32.4491 5.85073
-23.2771 -30.4324 7.06305
-22.4292 -31.0233 8.57216
-24.7324 -29.8714 6.45907
-23.3367 -32.8084 7.0215
-29.1701 -38.6034 18.3546
-21.089 -28.9527 8.29128
-18.7218 -32.4751 10.1599
-22.7576 -35.7093 13.5582
-18.9223 -32.8883 10.0981
-24.1398 -28.513 6.34482
-18.1174 -31.494 9.78861
-21.719 -29.3362 8.10705
-23.8393 -28.6654 6.87332
-18.0699 -34.5456 10.3555
-21.56 -35.7064 13.3539
-21.0744 -28.765 7.62045
-23.3934 -33.3972 7.44751
-22.144 -30.5798 8.02444
-24.5604 -29.7899 6.10001
-21.1127 -28.3029 7.48066
-20.346 -30.1652 9.1862
-23.1427 -38.3291 7.13807
-19.705 -33.3376 12.5145
-17.7906 -34.191 10.763
-22.8958 -36.4052 14.5177
-19.1156 -33.0482 11.6885
-21.584 -35.8028 13.4449
-15.0964 -33.0728 10.175
-21.4605 -30.3119 8.13168
-17.521 -33.4578 11.3848
-21.6014 -35.7751 7.76297
-24.9384 -32.52 6.24538
-21.2749 -37.6495 13.8194
-21.4307 -38.0194 13.0941
-20.6747 -30.6013 10.1109
-22.7767 -29.6726 8.77756
-19.4187 -29.6405 8.95752
-16.535 -33.6927 11.4949
-19.9379 -33.8514 12.1794
-24.1359 -29.8522 6.52877
-21.6481 -28.1265 8.25878
-22.0309 -30.3234 7.22776
-19.4066 -33.5197 11.4531
-18.3875 -34.981 10.9424
-21.8201 -37.8851 13.7746
-22.5528 -28.3069 7.16177
-22.023 -31.6361 9.00709
-24.1673 -31.6748 7.00191
-20.2812 -28.8383 8.40956
-24.2152 -31.4796 6.26373
-26.4796 -35.998 6.04707
-26.373 -38.6699 17.2583
-22.1851 -37.8498 14.1656
-18.5195 -34.741 10.746
-26.0192 -29.6327 6.07732
-22.1445 -32.5568 9.05973
-21.3403 -33.3326 8.0145
-21.3812 -34.8358 12.7128
-22.0631 -28.8972 7.50481
-22.4778 -34.089 7.68819
-18.6979 -32.9355 10.9459
-22.4291 -30.6369 8.3018
-22.3114 -31.0102 7.06158
-17.7814 -32.9321 12.0657
-21.2911 -27.9964 8.24004
-21.6789 -35.5947 12.8801
-21.6806 -33.6672 8.19632
-24.7343 -39.0958 15.9531
-21.3959 -36.1908 13.714
-18.3231 -32.7477 12.3285
-23.0312 -29.4355 7.654
-24.0355 -27.8145 7.03834
-21.0253 -27.9132 7.96388
-23.6292 -33.6587 6.98584
-18.7103 -31.8618 9.72441
-17.9533 -34.0389 11.4506
-23.3037 -29.5143 7.21982
-23.1598 -27.9627 6.99894
-22.4333 -30.0001 7.65399
-23.9354 -30.5589 7.92951
-23.4739 -30.6106 7.45414
-21.8937 -28.287 7.29813
-25.5077 -34.938 26.592
-21.1202 -28.4819 7.80349
-23.0835 -36.7996 15.3243
-20.7446 -37.3481 7.14933
-24.1645 -28.5193 6.58193
-22.6074 -38.0912 15.0173
-21.0258 -31.8578 9.39892
-23.073 -29.6903 7.01149
-21.1509 -38.0844 13.9053
-18.7001 -28.9865 9.08427
-19.1161 -33.5462 12.0253
-24.4094 -28.6543 6.64232
-18.367 -34.1384 10.7729
-22.1986 -33.0019 7.73496
-26.3915 -38.7971 17.5551
-21.5213 -29.2549 7.40893
-20.9581 -37.3219 11.8559
-23.0379 -37.1006 14.8416
-17.8876 -34.2268 12.2758
-16.6321 -34.056 10.7307
-23.5249 -29.1281 6.96456
-22.8832 -38.7581 14.6958
-22.0724 -29.6248 6.99803
-28.8436 -38.2408 18.2434
-21.9975 -35.9979 14.1871
[...]
POINT_DATA 10000
SCALARS t float 1
LOOKUP_TABLE default
242.395
220.822
225.951
218.224
218.805
219.166
238.235
214.64
219.924
229.459
236.624
228.422
218.646
220.169
219.591
220.534
232.862
219.547
218.939
216.44
234.242
218.878
220.189
244.371
225.265
246.814
236.696
217.74
233.546
220.036
241.97
219.576
237.791
235.97
222.863
220.94
228.616
219.883
219.845
220.57
235.842
235.98
219.916
221.152
219.877
222.894
228.577
222.378
217.434
240.007
218.87
223.043
228.634
235.83
220.26
231.386
219.256
246.213
225.484
218.39
225.201
225.418
243.66
223.329
234.906
238.259
217.008
227.794
213.661
218.328
219.508
241.467
220.841
235.431
218.737
232.417
218.612
243.953
219.427
236.089
241.143
238.301
226.902
220.373
220.956
219.766
224.693
224.508
236.012
218.883
238.953
234.632
219.764
213.634
231.541
229.743
245.874
228.331
223.324
245.937
232.039
234.413
238.456
220.182
232.158
230.766
220.472
224.245
220.099
218.335
227.163
216.821
218.407
219.68
225.331
219.99
236.127
228.593
243.953
228.824
219.915
217.06
224.508
217.1
230.712
234.468
219.599
219.202
231.959
228.098
224.034
232.041
237.317
218.908
221.833
231.168
221.287
218.824
218.789
235.851
222.15
234.811
220.511
215.149
225.936
218.775
238.055
237.64
245.765
239.934
219.923
235.957
242.544
217.614
215.071
226.859
241.764
225.992
222.806
218.275
239.843
218.662
232.954
220.605
218.843
218.17
240.701
239.915
221.049
235.771
229.203
226.059
217.218
215.787
219.408
219.941
229.376
229.459
231.571
234.274
225.507
236.799
236.579
234.199
227.202
218.865
230.473
218.472
220.827
226.642
224.867
220.941
221.614
218.591
216.075
229.412
232.267
219.082
220.529
230.387
236.457
220.667
235.439
233.353
217.708
215.017
240.353
236.957
237.781
216.18
250.405
237.701
234.716
227.804
234.32
236.705
230.697
223.434
220.273
237.287
218.371
220.83
232.308
227.012
223.989
239.446
244.727
232.938
225.454
220.856
219.99
226.78
228.799
229.965
231.159
238.991
228.281
219.641
229.282
231.376
221.312
220.172
239.748
217.053
222.943
234.95
236.809
221.956
249.343
230.066
223.828
243.439
222.157
218.861
239.545
241.863
228.969
219.656
216.196
233.135
229.675
231.461
231.741
219.336
224.453
226.51
240.721
220.8
234.921
240.225
241.747
219.845
241.946
219.949
220.876
228.336
231.581
218.267
244.734
235.913
225.797
240.875
235.161
213.312
229.183
219.957
218.846
220.048
243.134
221.049
229.814
239.087
218.497
219.391
233.528
231.727
229.208
243.776
234.977
223.865
232.26
220.32
217.862
218.064
220.146
219.318
217.519
228.718
217.969
228.639
241.4
218.971
219.262
221.513
225.805
225.3
217.036
220.773
240.318
230.397
234.755
220.289
218.341
218.767
237.339
223.463
235.833
228.606
241.607
242.419
214.526
218.453
218.502
244.664
222.628
228.038
220.008
234.238
229.737
219.069
227.493
235.649
219.311
230.606
219.703
226.653
215.963
219.188
219.772
232.619
238.985
232.295
235.059
221.3
218.57
235.561
238.947
231.901
229.721
232.991
236.34
217.976
232.658
216.792
232.458
241.382
217.413
222.164
236.842
218.911
225.392
220.279
240.819
218.475
229.951
214.266
234.445
219.784
217.613
219.759
216.71
237.868
217.821
236.972
213.302
218.71
216.382
234.011
224.083
235.76
220.858
209.92
228.561
231.037
221.862
218.139
218.246
231.698
220.659
219.391
220.081
227.943
233.677
229.609
245.601
215.762
231.311
236.106
223.002
214.308
224.508
221.208
246.583
220.456
229.207
233.329
221.896
231.803
219.939
239.419
236.588
224.817
237.998
217.528
245.144
228.451
235.283
235.533
246.771
217.361
234.37
239.879
228.204
230.736
222.671
237.311
232.984
234.609
217.584
237.84
219.697
233.723
236.863
222.378
216.986
228.679
236.033
221.404
239.508
223.19
233.046
227.997
220.438
237.254
242.719
222.177
230.249
215.866
219.573
218.76
228.87
240.554
220.631
241.064
246.261
242.538
222.514
219.031
218.609
218.537
230.552
223.933
226.388
225.243
230.02
233.916
224.98
222.782
234.792
240.782
216.886
225.44
220.279
228.262
218.059
239.941
234.631
224.176
219.464
231.684
232.353
230.341
235.39
217.786
232.641
220.035
220.173
235.103
234.908
242.125
239.985
220.583
230.116
237.064
220.292
222.615
222.158
218.276
240.039
219.233
221.029
237.776
222.875
238.58
240.631
236.805
220.999
231.078
218.356
215.367
218.282
237.764
244.651
218.471
236.101
218.994
219.333
219.876
240.455
227.417
219.801
226.764
236.501
236.272
220.046
217.868
240.837
215.822
233.928
217.478
236.771
234.607
221.352
233.577
242.114
218.187
230.553
228.511
237.893
226.161
241.661
244.093
240.426
213.186
236.289
231.024
219.127
237.055
215.308
220.866
221.423
217.949
221.733
219.72
220.6
238.887
224.738
237.587
218.264
226.656
234.315
238.357
228.618
231.277
220.293
219.918
215.548
224.474
227.466
217.055
236.988
219.395
219.373
228.589
219.206
239.639
236.531
227.063
234.593
234.313
245.341
219.302
220.873
219.478
239.422
228.441
221.047
250.228
234.367
218.171
235.181
225.405
220.321
234.994
221.448
239.528
227.808
234.393
219.658
222.164
220.554
219.74
220.517
226.968
227.455
217.552
220.484
226.595
220.407
223.624
230.199
220.781
222.538
234.386
219.813
220.627
230.877
218.553
237.16
244.798
233.068
234.003
224.029
221.653
219.211
239.865
226.197
229.65
219.827
230.163
220.307
225.223
221.154
219.609
234.148
231.903
229.303
217.004
215.512
218.656
217.073
218.962
240.404
230.854
242.084
239.689
240.463
250.79
228.052
233.237
218.77
241.695
238.806
229.028
224.079
223.708
239.5
225.219
216.467
220.671
232.617
214.615
235.506
231.899
216.974
219.683
219.19
217.25
220.046
219.363
217.622
217.337
241.644
217.815
231.486
239.817
220.038
218.824
233.345
242.04
219.889
224.783
220.502
237.217
223.212
227.064
228.671
230.428
227.877
233.855
230.788
217.993
231.175
231.361
218.932
245.356
219.362
220.063
219.921
237.045
244.021
218.048
240.315
216.242
233.62
239.018
221.007
225.548
219.515
222.201
236.041
219.432
219.551
217.651
229.617
231.734
240.927
219.056
220.052
236.301
226.082
225.589
220.822
235.81
238.861
227.457
221.333
238.826
216.376
227.139
231.543
239.882
238.443
237.897
238.258
224.119
227.823
229.555
220.229
213.351
227.916
218.687
220.849
224.688
217.382
240.824
233.945
234.304
223.008
224.714
240.066
232.751
237.538
230.324
232.737
236.258
241.799
237.968
226.622
236.07
232.697
225.008
219.588
220.416
235.704
218.405
240.75
237.716
219.963
232.507
239.981
221.336
233.458
220.008
225.809
231.938
237.143
235.95
222.672
225.043
227.238
237.826
235.392
222.916
223.28
232.982
224.871
241.986
243.063
225.833
218.601
243.578
222.464
213.516
219.241
226.12
233.647
229.403
223
217.929
232.529
220.339
228.591
219.942
218.876
240.079
235.944
246.118
245.453
236.706
251.124
218.289
233.695
231.768
243.383
233.433
220.567
236.775
225.74
217.878
231.761
219.355
226.372
220.393
247.406
235.102
217.491
225.672
222.745
219.776
236.339
220.536
242.016
230.124
233.694
222.04
231.725
246.899
222.502
219.944
219.685
230.935
236.824
240.766
223.227
220.054
223.93
219.912
233.453
230.577
231.62
237.902
220.198
216.449
226.311
218.988
232.726
230.477
222.414
246.756
223.256
213.415
219.987
217.236
237.711
230.736
223.153
219.444
216.906
235.207
219.158
226.988
245.622
222.668
218.995
241.171
220.526
233.619
217.632
219.219
240.073
238.055
213.461
221.189
239.593
235.195
214.103
234.328
238.979
228.75
228.575
222.698
220.803
229.363
220.495
224.542
220.442
229.072
220.806
220.046
219.905
226.503
222.534
225.525
217.083
241.993
237.132
219.231
216.985
221.165
224.149
219.467
227.583
234.894
217.505
224.214
226.827
226.648
218.853
219.889
232.082
233.888
218.909
243.178
219.496
237.038
218.75
235.498
230.586
236.845
218.515
241.519
219.095
224.948
230.717
238.744
238.986
217.741
218.841
225.618
220.342
224.066
234.339
232.908
242.738
237.952
221.413
234.774
214.356
220.854
230.491
235.375
216.638
234.96
247.5
237.729
222.288
219.425
218.099
219.041
246.847
217.798
236.762
217.031
233.783
247.314
228.124
220.717
232.56
218.875
215.979
219.815
228.575
220.261
214.236
220.25
224.039
220.423
235.433
220.273
219.995
220.758
243.325
237.905
219.167
230.777
230.844
221.321
220.711
230.142
219.383
218.122
219.3
220.588
238.574
228.46
235.488
237.578
219.448
234.688
220.04
228.743
235.203
241.262
233.704
220.193
217.654
219.595
239.077
242.704
233.282
234.056
219.655
222.907
226.178
220.359
228.229
219.205
218.577
222.635
231.988
218.982
228.73
223.599
238.695
248.157
218.731
216.602
234.758
239.203
227.301
245.102
240.424
236.722
233.178
241.501
232.474
225.65
241.678
221.762
219.72
234.782
240.964
230.519
244.56
245.379
238.401
227.466
237.878
221.189
221.96
222.297
241.332
233.811
219.298
223.339
218.422
231.667
220.119
235.399
242.091
217.299
232.17
230.289
218.475
217.868
245.205
232.112
242.907
216.739
223.179
226.429
236.629
229.136
244.116
230.604
221.55
233.928
220.355
225.046
234.696
242.718
220.406
246.392
239.393
220.758
235.643
238.941
220.208
219.46
226.073
221.018
238.523
219.573
238.649
219.978
239.468
249.774
235.16
241.664
218.346
223.508
242.556
239.382
223.024
217.988
239.101
218.281
234.379
220.487
228.87
228.88
236.213
213.932
237.772
222.804
238.988
218.444
220.859
219.598
221.049
236.255
220.395
218.962
217.27
231.733
228.647
237.099
225.161
227.117
237.384
220.073
221.561
218.842
238.888
228.044
219.879
235.025
226.979
220.119
227.626
220.539
230.274
219.048
226.596
215.014
228.078
227.336
218.568
218.834
234.923
227.899
229.392
230.547
244.561
230.641
232.589
218.422
235.747
217.378
236.522
231.319
230.316
232.001
231.476
231.164
244.325
231.644
239.982
235.286
237.342
219.419
219.903
216.638
219.427
235.602
220.995
239.059
241.607
225.381
216.921
229.747
237.002
219.16
216.743
219.194
235.749
223.734
235.213
222.122
222.938
220.265
233.961
227.771
238.352
220.452
235.871
238.391
217.246
231.206
233.073
235.531
233.512
218.25
237.812
233.54
226.462
219.538
220.959
227.024
235.169
219.865
232.885
214.433
219.183
237.934
220.679
227.093
232.482
247.996
224.642
220.781
230.305
236.766
237.438
218.857
220.601
230.339
250.187
214.41
215.351
236.273
240.565
223.597
236.859
224.296
230.214
223.24
239.339
230.319
237.659
220.828
226.061
231.452
218.495
219.807
237.631
238.706
220.528
218.981
218.739
220.069
244.944
237.47
219.557
222.905
219.948
225.499
221.263
217.48
220.356
244.085
222.029
234.202
218.072
220.002
241.352
219.725
228.502
217.48
218.258
221.753
236.448
232.017
214.144
227.46
218.373
220.293
217.008
237.67
227.701
218.957
218.941
232.246
239.563
219.55
228.708
235.641
220.142
220.816
234.352
234.761
229.695
244.091
224.428
230.728
219.39
234.438
239.684
245.036
217.84
220.119
243.217
216.187
230.37
223.975
216.108
216.622
213.867
242.29
218.455
233.979
219.263
225.754
237.087
234.353
246.546
249.648
222.267
218.262
225.016
220.397
228.756
233.608
231.264
238.888
218.558
233.917
217.797
229.823
229.616
225.072
226.75
219.705
221.485
238.591
226.865
216.862
220.164
222.485
218.284
227.366
217.045
240.737
220.128
224.752
236.133
229.139
219.727
224.915
237.415
242.509
237.785
217.692
236.519
218.313
236.081
219.429
234.554
223.628
228.017
217.388
219.019
223.992
222.749
228.609
228.579
220.239
215.189
226.159
222.431
230.499
222.569
218.643
218.863
228.923
227.745
238.589
223.609
232.088
231.187
228.65
232.417
235.352
228.014
239.512
230.352
239.42
219.722
237.994
228.38
233.608
225.743
239.058
237.879
220.384
225.151
238.557
232.059
231.91
222.172
236.713
234.923
218.227
236.15
220.993
237.075
239.079
240.975
219.056
215.305
217.184
235.513
219.062
227.063
218.038
221.916
219.322
219.362
247.252
225.178
219.335
219.406
218.819
225.337
240.963
234.806
218.744
216.299
224.434
226.401
231.74
232.035
221.906
220.027
218.12
229.687
216.965
234.323
234.552
227.969
220.592
218.982
241.152
249.07
219.819
219.716
244.458
220.436
238.321
222.796
246.797
237.799
219.983
228.976
244.307
235.122
219.662
235.384
219.187
230.475
237.109
227.293
219.119
221.402
232.895
217.639
237.53
235.901
220.898
242.847
228.919
215.052
219.719
217.187
224.937
221.884
231.161
219.441
233.857
229.739
230.312
220.233
233.602
219.487
227.409
219.556
248.586
227.113
220.524
219.071
219.271
242.465
242.675
218.918
220.248
233.361
233.275
238.019
222.204
220.763
225.964
225.652
237.656
239.371
220.41
219.62
218.657
234.165
222.685
246.45
220.328
243.432
230.647
228.983
227.906
235.067
222.709
243.004
213.578
232.883
230.784
218.768
226.243
229.662
243.533
231.449
244.154
236.347
228.021
218.45
220.274
240.702
241.519
224.248
238.182
214.125
227.126
238.181
218.662
237.04
230.372
235.406
229.881
218.373
226.532
240.379
239.382
220.522
226.279
220.899
219.276
227.028
219.343
235.247
225.624
220.239
243.217
231.118
220.206
237.683
218.088
233.979
235.119
217.366
240.362
234.284
222.447
219.765
224.274
216.679
232.812
235.558
219.411
239.401
218.168
243.689
220.203
220.552
240.952
237.913
220.87
231.965
230.477
219.332
250.142
233.594
217.668
234.741
225.063
219.335
225.444
229.704
216.608
225.964
219.938
229.579
239.953
226.907
248.188
230.186
238.466
225.834
238.88
232.971
213.502
236.247
230.847
228.934
236.01
224.187
221.691
243.93
232.144
234.715
220.694
236.674
239.58
234.675
236.162
231.57
218.634
217.604
219.199
219.034
225.214
229.621
228.297
219.125
219.296
219.138
231.968
231.104
223.314
230.334
219.179
232.493
227.548
228.032
219.157
229.631
230.017
229.115
231.782
232.16
235.317
219.812
216.639
224.47
224.174
219.839
238.58
227.468
219.724
226.506
240.58
238.549
230.206
217.931
228.493
234.449
228.602
247.98
225.02
220.188
217.721
243.3
218.923
214.597
226.228
239.484
239.213
239.455
230.218
227.008
220.442
227.21
230.412
225.963
238.602
235.295
236.748
242.796
228.781
219.114
223.58
227.896
223.63
245.873
233.01
218.698
238.516
238.652
241.957
219.949
218.889
224.696
222.538
217.893
234.099
222.388
238.553
214.887
220.187
224.79
218.344
215.512
234.915
234.35
237.898
232.932
222.669
242.2
218.23
226.104
224.078
244.085
219.373
243.057
231.503
236.295
230.043
233.708
222.463
227.965
227.247
227.012
227.946
222.025
233.853
220.328
220.563
234.943
241.668
232.247
220.642
225.471
218.789
236.756
239.84
232.789
226.373
233.579
221.378
229.799
219.404
220.403
227.588
219.998
226.137
234.08
217.654
224.61
215.574
229.409
220.157
227.457
219.852
226.429
243.32
215.217
213.764
242.504
220.718
220.301
236.521
231.861
248.196
240.486
222.177
237.377
219.668
237.341
225.848
230.928
223.744
221.635
233.823
223.387
241.61
220.646
220.538
244.148
234.867
230.59
219.186
217.968
218.738
218.26
235.014
235.437
229.053
238.349
231.406
220.682
218.988
234.301
233.608
219.424
240.697
228.598
218.462
234.339
220.844
220.214
237.554
230.952
242.64
222.359
236.362
225.806
226.112
232.327
231.444
234.09
239.578
232.887
241.587
220.084
219.521
231.659
236.967
237.592
226.93
239.115
215.207
217.144
231.139
233.582
227.556
224.289
233.738
220.961
220.546
224.79
220.142
234.395
217.325
229.12
230.117
219.885
216.716
219.594
227.495
221.955
219.314
231.258
228.636
240.644
217.505
233.912
239.153
225.72
217.993
219.93
222.939
241.508
230.891
226.757
239.678
228.568
238.418
230.554
231.31
227.619
228.707
233.459
236.305
216.001
218.754
225.052
220.837
220.725
215.822
223.138
225.277
236.754
235.252
233.158
227.477
217.458
245.172
225.45
230.168
221.235
233.922
217.595
228.753
223.865
220.455
228.733
220.339
241.391
216.505
219.683
226.74
237.193
219.944
245.192
218.506
228.606
217.646
227.441
240.894
235.747
237.909
226.404
226.762
230.392
219.156
216.163
232.412
236.479
233.557
227.87
237.207
228.626
233.623
238.237
222.631
238.084
226.791
240.01
228.884
216.036
229.8
237.39
222.741
220.249
224.497
228.065
234.665
227.199
224.488
244.425
242.4
237.883
220.446
228.282
234.812
239.929
212.632
237.005
222.258
237.941
243.805
238.857
232.463
213.617
218.872
234.494
217.932
238.551
236.324
238.512
219.436
229.432
217.152
216.182
239.281
240.219
230.307
237.38
217.327
242.023
225.728
230.792
222.412
226.42
219.98
224.788
227.812
219.435
237.48
219.4
233.898
218.644
218.462
231.262
218.654
239.704
218.412
235.653
251.208
236.73
235.203
249.645
224.279
235.101
219.336
228.534
229.455
227.372
220.453
219.8
228.906
229.644
237.288
240.179
228.592
229.104
218.998
218.386
245.882
216.787
225.197
239.05
220.37
221.277
232.249
223.021
244.146
238.014
233.071
220.869
239.215
228.841
226.93
231.093
232.039
222.242
233.306
222.733
215.524
213.285
228.358
235.259
216.335
220.184
220.917
234.833
222.407
244.643
232.095
234.756
220.641
233.55
230.883
225.808
239.467
224.574
220.184
238.08
219.021
225.136
237.36
228.814
223.299
215.574
220.424
239.557
228.205
232.663
219.557
218.681
237.963
221.517
237.923
221.794
237.824
220.906
225.491
238.94
224.451
246.553
235.536
230.505
218.22
223.507
247.808
237.397
213.368
232.498
222.969
235.162
218.553
234.319
219.38
229.404
236.925
235.511
223.018
217.215
215.192
220.515
236.956
220.548
228.888
239.589
217.407
223.659
224.424
245.118
218.847
219.79
229.734
240.244
234.307
235.058
235.822
219.212
236.293
225.094
228.054
222.773
219.538
243.701
219.994
219.887
234.932
230.756
222.505
233.24
226.166
217.61
223.436
218.99
229.725
217.486
219.338
244.919
234.074
232.966
243.715
222.669
232.042
220.078
219.758
222.115
218.334
222.069
237.465
232.184
239.121
219.448
223.807
224.45
223.292
238.021
221.868
220.312
227.836
218.01
227.072
241.062
222
219.908
235.546
218.284
236.018
235.687
221.079
218.241
236.606
223.744
235.15
221.7
235.069
241.07
226.673
236.141
226.563
229.777
234.877
218.622
240.398
231.631
213.966
239.415
243.804
235.283
236.732
220.805
234.21
219.961
221.186
220.12
226.595
243.251
221.907
220.062
241.14
238.44
226.729
242.076
218.768
238.339
220.807
227.552
226.534
240.218
241.477
229.899
214.406
230.366
235.429
216.936
226.157
220.436
232.465
224.825
229.023
233.543
232.066
227.629
245.04
230.272
217.038
218.485
223.16
239.069
221.181
227.137
231.31
240.561
236.55
219.443
231.839
220.938
219.858
229.349
242.252
229.944
231.571
234.922
229.399
225.146
218.175
235.04
243.571
225.3
236.279
219.038
219.726
225.297
234.587
214.061
232.461
218.556
242.595
235.962
219.262
233.456
240.361
223.072
219.268
217.982
219.28
222.991
229.245
242.191
229.091
220.45
231.908
236.088
230.207
237.707
226.926
220.113
243.058
214.219
227.481
233.49
219.195
239.263
234.334
213.924
223.045
243.955
229.067
219.54
219.405
225.412
232.524
229.269
235.139
234.637
218.713
221.083
235.2
232.357
218.9
224.262
216.921
219.612
218.457
215.705
241.611
232.929
224.061
243.423
225.287
233.344
239.199
219.154
237.319
222.828
233.414
228.198
245.132
239.79
217.304
226.152
234.516
221.884
236.456
219.063
234.16
228.886
218.919
226.25
223.048
231.246
220.418
236.759
238.073
233.063
218.636
232.88
234.845
243.979
219.047
223.035
228.01
248.019
220.648
232.482
238.667
221.239
218.909
219.7
221.705
235.911
242.182
217.714
234.54
220.87
235.587
236.376
238.531
213.182
227.716
219.749
230.505
240.701
227.326
223.88
237.043
230.217
231.137
230.205
232.062
219.351
220.076
218.274
218.099
233.102
234.652
220.37
222.659
236.912
231.434
220.393
235.031
220.221
238.73
220.355
228.085
245.919
238.348
219.808
238.439
236.309
222.069
239.137
244.295
217.091
220.18
219.704
231.848
217.803
236.872
244.07
218.982
237.975
237.383
219.545
222.694
223.86
243.218
229.08
230.934
228.791
222.793
218.558
233.446
221.69
236.803
236.53
229.213
218.753
235.956
220.027
235.514
232.95
220.306
238.498
219.504
220.201
229.903
232.563
218.802
232.703
224.811
219.697
240.142
224.517
223.386
242.991
219.63
233.097
221.756
218.025
224.96
221.058
217.564
219.713
237.081
215.736
223.33
220.982
220.817
233.654
236.129
220.442
218.958
216.971
222.147
233.854
230.13
222.308
229.072
219.783
219.3
219.268
231.884
220.22
236.594
225.155
237.407
213.096
220.331
236.28
213.215
219.521
235.821
219.943
217.57
232.469
237.02
234.203
225.908
240.573
219.423
234.533
220.496
217.911
229.186
217.854
219.963
220.758
226.134
230.706
218.545
222.041
224.339
233.541
219.473
236.733
220.587
226.344
218.161
227.06
232.429
235.385
217.061
230.932
229.604
241.403
232.694
222.281
229.563
229.576
218.477
226.511
246.623
234.835
223.171
220.129
224.231
223.599
222.78
234.3
241.599
233.678
233.404
223.868
242.546
218.67
220.775
237.798
230.85
231.179
220.013
234.968
226.349