# vtk DataFile Version 3.0
vtk output
ASCII
DATASET POLYDATA
POINTS 10000 float
-12.5735 -24.7006 5.32098
5.96933 -47.6625 12.1518
-4.34625 -41.9245 10.7764
1.33607 -45.6538 14.8736
13.0366 -50.1686 11.9829
-3.72286 -39.7419 14.1181
-11.713 -30.6306 7.75605
24.0666 -49.1741 10.7944
17.7608 -49.7155 10.9117
-12.4421 -32.1148 7.73153
-10.4473 -33.898 7.19818
-13.0684 -31.4357 7.12564
0.421176 -44.8282 14.5316
8.14968 -49.4793 12.3812
3.17738 -45.4205 13.3962
14.0163 -50.4423 9.88944
-14.9812 -27.3105 4.72315
-0.172276 -43.9756 14.0248
16.8631 -50.1139 11.6254
15.7731 -47.5913 13.0455
-15.4845 -28.1634 4.44903
1.15681 -45.0343 14.5508
8.67144 -48.6352 12.6367
-15.8504 -22.1301 3.69885
-12.1888 -33.1258 9.40522
-15.5883 -25.3532 3.41156
-13.6308 -26.3282 4.57766
0.104671 -44.8909 15.3903
-12.395 -30.3737 7.70229
10.4856 -48.6404 12.4044
-17.2331 -24.9066 2.22454
14.2323 -47.0858 11.7647
-11.7647 -30.3399 6.41971
-13.2483 -26.4017 5.46582
12.579 -50.6091 9.52572
6.81714 -47.1964 12.6728
-10.9535 -35.268 7.64727
12.5981 -50.5965 11.5637
15.6804 -49.8238 10.3945
1.99729 -44.4714 13.1487
-14.432 -28.0223 4.15727
-13.9164 -27.9022 4.72392
7.6472 -47.6134 12.5561
6.83244 -49.7479 9.64556
8.82686 -47.6503 12.3077
-2.55799 -45.7843 10.047
-11.9912 -33.1044 6.94612
-5.86436 -43.7499 9.47259
18.3025 -48.3003 10.9443
-15.6199 -24.5831 3.82382
10.4902 -47.0833 12.7538
-11.7162 -35.744 8.54011
-12.9757 -30.6942 7.2713
-14.649 -25.877 4.34176
-0.082083 -44.474 12.7079
-13.2686 -28.2454 6.0366
3.22894 -47.049 14.0282
-12.7317 -23.6387 4.51874
-12.0827 -32.0675 8.24945
17.4494 -49.9672 10.8293
-11.7036 -34.792 8.8462
-13.0406 -32.3141 7.74099
-9.88661 -29.1524 7.08162
-5.0158 -42.7793 10.2097
-13.1865 -27.1556 6.08574
-10.5961 -25.4588 6.68491
-1.32279 -43.3741 15.7232
-10.7971 -36.0312 8.64818
-3.3516 -43.1056 17.975
1.21993 -45.267 14.9102
3.50712 -47.447 13.4669
-11.5444 -30.5235 5.65072
3.70061 -46.9552 13.1203
-11.5127 -29.9312 6.96983
-0.290087 -44.8882 14.904
-13.0589 -33.2773 4.9432
14.7132 -48.6314 11.0586
-17.4915 -23.1521 2.94588
13.1219 -48.0253 11.2465
-15.5724 -26.8968 4.25176
-15.8839 -25.1723 3.68094
-14.0578 -27.8495 4.33625
-13.4014 -31.1658 6.49228
2.95524 -47.4467 12.9097
15.6667 -50.2616 10.2307
0.618816 -45.1132 13.8237
-14.4954 -29.2881 7.42596
-6.99315 -41.9193 9.21521
-13.3286 -28.3478 4.88303
3.46214 -47.0173 14.4346
-16.4031 -26.5964 3.87994
-11.4027 -31.7021 7.28319
5.18441 -46.884 12.3911
-3.73755 -42.9404 19.1878
-12.1121 -27.9594 6.38633
-14.0116 -28.9601 6.18693
-19.3138 -23.7079 2.76081
-11.8733 -34.5243 6.10766
16.1355 -50.4343 10.335
-17.715 -21.0662 2.95077
-12.9263 -29.8205 6.60789
-11.2008 -27.791 6.35966
-15.4305 -23.905 4.36769
10.3763 -48.9144 11.8902
-11.9001 -28.9268 6.47682
-14.0409 -29.1912 5.68986
1.35219 -44.3503 13.1165
4.80298 -48.7243 9.11268
8.49753 -48.0944 12.5743
7.80054 -46.1921 12.3197
-11.2443 -33.703 7.27594
17.8012 -48.4389 11.9667
13.7389 -48.9772 12.8026
11.7214 -49.5942 11.9048
-11.9641 -33.0436 7.94757
14.8246 -50.1443 9.93546
-13.5873 -29.8962 4.82389
-7.05428 -38.3515 10.7941
-12.9847 -25.8358 4.71247
-12.1503 -32.7892 7.52378
1.4406 -44.5472 13.6087
1.85852 -46.5805 15.5055
-12.1294 -34.9183 7.86258
20.4245 -49.254 12.2876
-13.1425 -28.4107 6.09227
-15.7617 -27.7116 4.44091
23.2695 -51.3451 10.7264
-0.872954 -43.9619 14.1364
-12.0183 -28.2053 6.19082
-11.2493 -34.1277 8.92331
5.3434 -49.5991 9.29964
-14.7412 -29.4806 4.94283
-12.3058 -26.9663 6.2077
11.1249 -48.7625 12.3326
5.20376 -47.8551 11.0116
-13.6174 -31.1163 5.22414
-12.2996 -35.6473 9.07404
18.0847 -50.0418 11.1588
12.7734 -48.6807 11.8997
-11.264 -31.7825 7.1346
5.82171 -46.3192 10.7468
-14.0409 -27.534 4.88715
1.55327 -43.2184 13.1935
3.709 -46.9136 16.7444
-10.9452 -36.6458 9.51169
1.71727 -44.7152 14.6481
-11.472 -30.8231 7.76169
-10.6133 -28.4233 6.48815
-16.5728 -21.4966 3.3085
-11.8872 -28.1161 5.64399
9.08841 -46.0797 12.8682
-15.882 -27.0924 4.29165
-16.2845 -30.6499 3.75092
-0.316372 -44.1518 15.4142
26.3145 -50.0554 11.7898
-6.60126 -40.8437 10.0517
-16.056 -24.0317 0.781889
-3.96859 -44.1687 10.1378
-2.90498 -44.2345 10.1749
20.7282 -50.7343 11.031
-14.2674 -26.2249 4.29782
12.9517 -48.8295 12.483
-13.4536 -31.382 5.48182
4.37079 -47.4055 12.2868
1.48859 -46.116 14.0652
1.75278 -45.8615 14.854
-10.5963 -29.4451 6.43253
-13.3302 -25.4016 4.92671
0.450473 -45.8822 10.5134
-12.6269 -28.7214 5.36961
-12.0633 -32.7258 7.47152
-7.18103 -42.6582 7.62447
1.21358 -46.4079 15.5213
5.1502 -47.5897 16.9316
-4.70516 -44.4904 10.2046
10.2443 -48.9219 12.0782
-12.4234 -32.2584 6.25118
-12.4874 -31.8485 6.12825
-12.7657 -31.0663 7.21086
-12.9475 -27.3017 5.39821
-11.9923 -35.6341 8.29758
-12.062 -32.115 6.08158
-11.0615 -32.4241 8.87467
-11.4297 -28.6181 6.98681
-12.4887 -34.8593 8.4333
10.0241 -48.6767 12.0743
-11.8964 -34.3113 8.3861
19.6161 -49.6962 11.1835
5.34377 -47.098 12.5652
-6.88232 -41.5739 9.72483
1.72679 -47.498 9.82772
12.535 -48.3376 10.4699
-0.0714355 -47.338 10.3316
18.8988 -50.1114 11.9907
4.11867 -48.0146 16.0035
-11.3077 -35.5991 7.73857
-2.04158 -47.4798 5.98074
0.998082 -45.0388 14.0275
1.49806 -45.7567 12.7532
-12.5169 -30.79 7.61317
-10.6575 -32.9537 7.35719
5.67708 -47.6185 12.6962
-14.5342 -26.8849 4.09959
-14.8102 -32.1081 4.58649
13.1425 -48.8512 12.9572
20.3761 -48.4297 12.5396
-10.5969 -32.1974 7.33719
-12.1957 -31.8181 8.14844
-11.2019 -31.972 7.81466
0.740712 -46.2546 16.1838
-16.8915 -20.3104 3.02431
-15.4261 -26.4315 3.95054
-13.037 -27.6514 5.06574
-10.7355 -34.6919 7.5262
-14.4652 -27.1819 5.06289
-12.4051 -26.8719 1.60933
-9.91955 -37.9623 8.2756
-6.4498 -42.4175 9.93425
7.2095 -48.7188 12.1487
-15.39 -26.035 3.99334
16.6988 -50.7545 12.0316
16.3841 -50.8298 10.5146
-12.6281 -30.434 6.44029
-10.1475 -37.085 7.36951
-12.2429 -34.7824 8.17798
-10.8205 -30.4964 7.54069
-18.3644 -24.4144 2.94983
-11.7999 -28.9202 7.2468
-11.1877 -36.2774 7.57088
5.73646 -48.4336 10.7137
5.00775 -46.4829 13.1088
-11.669 -35.0763 8.88315
-12.2581 -32.0394 7.92331
-12.5149 -32.2415 6.39285
-14.1047 -27.3282 5.10031
-11.9055 -26.3498 4.41552
-10.5936 -36.4496 8.20867
8.56699 -50.2856 12.2187
-13.0092 -31.0432 6.02943
-13.2832 -27.8594 5.45181
4.30842 -47.6293 9.85813
11.5876 -50.9857 10.809
-9.58868 -30.7573 7.53258
15.3628 -48.2327 12.0446
10.6774 -49.4424 10.1967
-14.6832 -31.0276 4.64592
-12.5771 -28.6499 5.75983
13.6971 -49.617 9.70165
-19.8044 -22.5176 2.75922
-11.0836 -34.2379 8.23236
-10.739 -37.5212 8.3934
-13.5779 -25.7016 4.30383
5.04205 -48.4857 10.2417
12.5215 -49.3401 11.9906
-15.154 -28.826 3.95318
-18.0258 -22.4564 3.03406
-13.7116 -28.9653 5.73594
-0.586677 -44.7495 13.5472
-0.657756 -44.5129 15.7501
-11.2021 -33.5245 7.02575
-12.7423 -30.6669 6.14916
-11.4325 -35.7031 7.85638
-13.6336 -33.276 5.09999
-1.76674 -43.3062 13.468
5.92297 -46.7176 10.9173
-10.987 -35.3764 9.1057
-15.4573 -23.3138 3.63664
2.65797 -46.859 12.853
-14.9236 -29.0269 4.626
-12.1517 -25.582 6.08564
-13.994 -22.9232 4.49738
-0.164625 -44.0423 13.6498
-10.2296 -27.1017 6.78753
3.8709 -46.4432 13.1672
1.14975 -43.6122 13.1032
-9.7319 -37.5311 7.61268
-12.3637 -27.7205 5.89192
12.6826 -48.2494 12.122
-17.6101 -24.2346 2.84153
-13.0187 -28.9926 4.8503
-13.0022 -31.0941 7.61228
-17.3164 -24.278 2.96954
-13.8764 -29.3307 5.13921
-3.12411 -42.9649 18.2927
-9.6056 -38.4863 8.49145
13.6051 -49.3305 10.935
-2.41992 -44.4211 13.7459
11.865 -49.703 10.556
-12.9633 -25.3203 4.78753
10.8831 -49.3604 10.6613
-11.485 -34.7507 7.95229
-12.2898 -27.2092 3.13633
21.8765 -50.8198 10.4856
1.27332 -46.0847 13.9457
-11.0459 -34.2813 7.84303
-14.3375 -27.7191 4.68857
-12.5985 -29.5528 7.16398
-14.8773 -24.3409 3.9694
-9.63173 -36.5343 7.94846
-0.694217 -45.5952 9.95917
-13.6504 -34.483 4.94137
1.90721 -45.2191 12.9533
18.5117 -49.4107 11.9691
-1.76923 -43.3086 14.997
7.80003 -46.7177 12.6265
-1.99792 -43.1506 13.8419
31.8415 -50.5974 10.5572
-11.2726 -34.2426 8.01721
15.7017 -49.7065 12.2796
-12.9999 -32.3534 5.73591
-17.1763 -24.2816 3.43521
3.57345 -47.0072 14.3966
6.46016 -48.634 13.9535
-2.14411 -41.8159 11.837
-13.6882 -31.7466 8.29804
-3.33424 -45.3577 9.57653
15.1449 -48.48 12.3357
1.7645 -45.771 13.2955
-14.4978 -25.2987 4.00425
-7.69911 -40.271 9.60216
-11.6846 -32.3829 5.75804
5.02162 -46.2335 12.7261
17.4 -49.9172 11.9983
2.70666 -46.3564 14.4381
-11.7101 -29.8314 7.49642
-12.4989 -34.0427 8.18243
-13.9725 -26.9736 4.43261
-11.1865 -36.906 8.78805
-16.2329 -25.9758 2.36508
-19.4745 -26.4324 3.07061
1.20271 -45.2729 17.4853
2.03479 -45.9531 14.873
20.2727 -51.3147 11.1911
-18.187 -22.1328 3.06304
-12.621 -34.8449 8.53023
-11.7108 -34.3461 6.66073
0.116679 -44.1432 13.3478
-11.5916 -29.3443 6.59794
-13.3593 -30.4846 6.21432
11.6831 -48.1942 11.8492
-13.0777 -30.9403 7.46435
-12.5726 -28.902 5.80001
9.189 -46.6607 13.0468
-9.42472 -37.5213 9.08563
0.197738 -45.3858 13.8045
-12.4628 -33.7961 6.9937
2.1058 -46.9321 16.4685
-0.842514 -42.5981 14.0359
7.36225 -45.4564 12.9833
-11.2378 -28.7681 7.22068
-10.404 -27.3827 6.83401
-9.30151 -37.1884 9.30554
-14.6872 -29.911 4.71403
6.81328 -48.8429 10.2052
12.42 -48.7303 12.2838
-13.3815 -28.1991 5.27621
-10.6036 -28.5826 7.26154
-11.9954 -30.7527 7.27867
-13.4528 -27.9503 5.50039
-12.545 -29.3956 6.15767
-10.5627 -33.2198 7.98032
1.47479 -35.7281 27.5186
-12.2174 -32.0378 7.85013
-0.36014 -44.8476 15.7399
-9.76477 -40.1937 5.91413
-12.1808 -26.1549 0.388066
4.27596 -47.1155 15.7745
-5.23134 -44.068 9.89589
-12.6296 -28.4785 5.79484
4.80932 -47.2046 14.5755
6.57295 -47.1179 10.7438
8.09347 -46.9517 12.5964
-12.722 -25.4954 5.23762
17.9861 -50.4793 11.7325
-13.4254 -30.0685 5.66275
1.32901 -45.0379 17.6894
-10.752 -33.9399 6.96723
5.12836 -48.679 12.8064
0.839743 -45.1399 15.1592
6.1849 -46.0528 13.3547
23.2311 -48.9998 11.2901
-12.0936 -28.9255 5.87169
3.55561 -47.4996 15.4743
-11.8049 -31.2068 6.40856
-3.37509 -42.9276 18.4413
-0.340365 -43.6318 14.5622
19.5517 -48.834 12.0625
-12.7212 -28.0852 5.93252
-8.17853 -40.7041 9.4133
-14.7298 -26.7349 3.92077
2.60304 -45.5859 13.158
[...]
POINT_DATA 10000
SCALARS t float 1
LOOKUP_TABLE default
254.85
210.03
210.813
212.883
211.699
214.436
233.095
212.672
212.536
232.737
237.311
237.361
213.363
212.049
212.527
216.253
257.89
213.487
211.386
211.041
259.742
213.197
211.787
269.443
220.407
268.382
259.596
212.817
233.262
211.027
275.926
208.226
243.489
252.562
217.6
210.99
233.346
211.395
214.525
212.394
261.976
257.718
210.824
216.806
209.825
214.138
238.922
217.69
211.732
266.273
210.452
225.769
236.337
261.56
212.293
247.185
212.436
262.242
228.89
212.939
223.778
232.388
239.674
213.526
247.439
244.84
212.878
225.154
212.06
212.991
212.574
249.535
212.416
239.372
213.332
254.483
211.407
273.757
210.224
261.845
266.878
260.721
242.355
212.533
215.103
213.281
235.252
219.8
256.3
212.313
264.944
236.682
210.161
211.682
244.968
245.422
275.471
245.276
214.637
275.486
241.823
245.501
262.892
210.195
243.729
249.287
212.525
219.782
211.169
208.563
236.498
209.797
212.206
211.044
231.084
216.351
256.046
211.934
258.847
234.383
212.972
212.132
231.361
210.82
246.694
260.045
213.652
213.604
246.312
223.551
218.345
255.209
246.838
210.978
211.077
252.611
221.608
212.018
209.996
237.86
211.398
256.556
212.257
210.531
218.675
213.075
233.12
244.317
272.607
250.588
210.27
261.491
264.007
212.917
209.817
214.754
284.511
213.916
213.747
212.506
261.758
211.479
250.489
210.567
212.906
212.769
244.108
257.288
211.982
252.328
234.829
230.437
212.229
210.037
213.538
210.529
244.372
245.395
236.842
252.725
227.602
245.811
224.481
240.241
226.652
210.222
227.4
211.753
210.896
216.585
215.537
213.747
212.65
211.626
211.024
232.308
240.671
213.232
212.151
233.836
236.178
211.539
262.917
257.268
212.288
210.191
236.474
229.673
232.634
211.55
275.33
264.282
255.198
234.584
255.231
278.378
227.371
215.164
210.88
264.141
211.952
213.868
243.075
234.596
228.804
235.127
273.264
237.931
233.268
212.345
211.988
223.416
231.335
243.245
254.914
260.979
228.446
212.194
246.185
251.975
215.882
212.542
235.652
209.742
214.957
257.099
249.277
217.497
276.614
228.977
226.434
262.005
214.095
210.894
263.094
274.065
249.088
213.459
212.569
238.465
245.337
231.288
253.22
213.588
210.79
221.858
268.663
212.328
257.913
248.564
262.998
213.389
243.13
212.316
212.362
232.67
248.783
209.891
273.549
256.289
233.602
272.636
253.748
211.974
225.648
212.219
213.766
213.688
258.486
213.148
230.931
269.065
214.388
212.969
232.075
258.045
237.757
265.368
230.771
214.936
254.219
212.362
210.898
213.711
210.273
213.746
213.418
230.599
212.035
248.354
269.693
212.304
212.096
209.62
227.955
217.005
210.698
212.861
264.349
217.691
248.369
210.947
211.575
212.578
235.322
228.814
260.417
223.6
274.366
271.98
211.245
212.692
212.387
274.213
225.842
241.04
213.166
242.623
244.689
209.388
234.748
248.834
211.078
221.711
213.335
238.324
210.965
213.586
210.763
238.446
242.557
220.248
256.861
214.469
210.838
253.218
238.516
236.636
251.517
245.755
231.381
214.628
231.928
212.479
243.995
287.52
211.439
215.17
249.084
212.051
211.746
210.3
254.891
211.59
249.206
211.256
238.984
212.394
212.909
211.886
210.719
248.352
211.768
243.438
211.949
213.515
210.304
248.197
218.695
264.277
212.482
206.608
231.564
242.213
224.301
211.04
212.262
249.804
210.63
213.278
211.383
255.238
254.1
236.792
274.988
210.806
253.132
265.082
214.129
211.98
229.659
209.572
277
211.731
223.715
245.713
231.407
240.844
212.722
234.003
243.88
217.209
252.538
213.517
274.789
239.22
254.917
238.511
271.988
211.312
255.386
261.923
224.625
214.826
217.564
259.835
239.253
254.085
211.971
260.526
213.437
229.385
262.415
211.27
214.299
237.987
235.176
210.458
259.202
215.153
237.297
231.954
212.18
252.769
270.429
210.317
231.692
208.017
212.548
209.611
233.276
263.665
211.391
260.83
273.091
272.439
222.005
209.004
212.891
213.853
245.916
217.676
217.364
228.421
240.274
256.741
229.67
211.112
242.765
286.796
211.827
232.042
212.246
227.344
212.638
267.258
254.917
209.962
212.085
244.856
253.503
239.748
253.773
211.971
243.222
212.277
211.447
261.403
254.421
255.002
271.127
211.893
222.687
239.764
210.063
212.861
212.855
210.671
270.63
212.273
212.365
262.44
211.867
255.763
260.776
260.507
212.959
237.975
212.281
209.745
209.971
227.779
267.46
212.402
258.048
211.807
213.204
216.618
268.925
224.149
212.379
233.502
243.413
257.89
212.723
211.577
267.83
214.53
252.539
220.047
261.308
221.857
213.579
250.548
240.465
210.341
250.673
225.707
255.626
225.535
264.882
248.829
266.632
212.052
259.294
253.362
212.501
250.987
210.016
210.801
216.944
210.148
214.432
212.071
210.16
252.323
230.169
251.38
211.981
221.564
238.395
282.725
214.57
238.239
209.481
212.781
211.094
214.577
231.816
209.715
250.189
213.315
210.568
236.679
210.787
260.607
257.599
235.592
259.607
249.958
281.297
212.277
214.146
213.732
257.146
226.996
218.066
275.666
251.111
212.037
261.769
209.914
218.101
239.283
210.855
242.402
232.523
254.723
213.797
218.076
211.547
213.231
210.623
239.719
232.027
210.967
211.562
236.224
216.244
220.722
240.156
212.307
215.668
233.543
211.095
212.78
247.22
212.323
261.276
275.481
255.613
230.002
232.769
213.813
213.487
262.095
235.676
253.201
212.398
238.801
212.535
229.231
237.34
211.823
253.399
236.835
255.978
211.414
209.001
213.303
214.802
212.396
273.198
242.966
259.396
243.276
250.723
279.318
237.398
249.66
211.979
235.078
268.349
227.691
216.908
222.247
231.254
231.79
211.487
210.894
238.802
212.183
238.051
241.245
212.124
210.282
212.594
210.875
211.459
210.165
209.956
212.002
264.394
212.32
237.37
266.488
211.667
213.349
254.042
287.79
211.456
215.299
212.13
267.225
216.57
239.758
231.01
245.812
233.302
223.503
237.523
210.682
243.687
228.581
211.638
271.889
212.446
212.906
213.43
264.558
275.063
210.159
261.975
211.657
258.735
251.584
210.91
230.701
213.056
211.757
230.541
211.272
211.727
209.986
237.206
241.336
260.509
214.877
214.879
242.459
214.154
233.501
212.223
261.146
263.107
235.849
210.636
242.976
210.623
241.847
247.293
287.964
264.391
253.067
241.83
214.793
226.811
239.175
212.232
211.981
219.349
212.241
209.918
237.729
209.583
250.212
254.787
247.576
212.723
216.699
256.283
249.853
268.728
225.739
243.837
258.726
249.827
254.392
216.843
238.228
254.839
219.857
210.401
212.536
243.925
212.718
269.467
257.746
209.846
231.312
265.381
213.762
232.702
211.503
235.46
250.893
258.478
238.011
215.485
213.762
218.077
228.972
251.057
233.208
223.089
256.058
220.203
266.892
273.779
231.509
210.236
256.591
214.257
211.73
212.452
216.364
221.42
251.071
216.957
209.687
241.154
211.947
236.436
211.516
213.23
282.281
259.531
259.192
269.823
262.476
274.557
211.107
259.462
244.645
249.731
257.255
211.417
231.824
226.177
212.277
245.312
212.522
215.068
212.255
276.887
263.885
212.254
232.026
213.598
212.855
268.717
210.836
265.572
243.765
234.17
211.46
248.663
278.705
214.77
212.257
208.978
230.686
249.306
239.123
214.575
210.578
217.975
212.692
219.782
231.129
253.357
264.571
213.35
210.043
234.547
213.281
253.048
246.182
214.725
277.448
214.868
212.107
210.147
210.221
284.968
236.456
212.635
212.599
210.59
243.041
212.302
236.547
260.507
225.51
213.873
252.242
212.587
234.834
212.887
211.406
283.264
257.26
211.478
211.579
244.785
244.589
210.056
234.578
263.46
240.089
248.287
214.965
210.337
245.234
214.475
239.388
213.394
243.372
211.132
212.23
212.318
241.983
211.046
213.583
210.346
269.164
244.581
210.742
211.531
213.137
213.417
211.315
233.957
260.27
214.291
220.785
215.531
232.364
212.808
212.459
247.279
226.669
212.05
280.034
211.786
264.251
212.527
246.413
236.994
259.347
212.386
272.629
210.414
212.283
245.862
234.271
245.322
211.964
216.659
230.093
211.115
210.434
238.773
231.451
272.576
265.882
210.953
256.609
211.712
211.648
247.991
233.712
206.972
223.575
268.832
259.093
211.737
210.325
210.537
211.367
257.98
211.92
258.668
214.121
232.967
259.098
218.302
210.864
244.06
213.401
211.366
212.734
243.051
213.355
211.835
212.28
229.684
239.517
257.469
210.131
213.403
211.963
268.22
264.571
213.914
244.665
242.485
211.529
212.109
245.959
213.372
212.956
213.587
212.147
266.743
238.775
230.709
247.826
212.622
242.94
212.218
213.566
252.109
271.339
254.659
212.22
210.387
212.239
244.497
274.705
258.483
234.837
213.749
218.584
232.458
211.011
230.529
210.023
212.512
220.14
253.479
211.876
221.206
238.172
245.85
291.126
213.186
209.111
251.741
279.403
229.774
272.001
258.491
257.538
252.952
283.533
240.875
224.323
255.632
212.513
212.943
248.559
233.756
242.88
269.327
257.746
231.61
229.793
256.331
210.49
212.327
218.628
252.142
235.698
212.703
211.691
210.848
251.837
212.193
237.025
256.773
212.397
239.881
238.77
212.708
210.159
270.757
253.154
272.079
209.915
215.178
227.253
230.066
243.335
263.451
244.413
218.066
242.636
211.615
223.076
258.791
265.363
213.724
272.33
262.983
212.64
248.576
244.305
211.691
211.618
236.098
209.234
261.757
213.22
257.874
212.516
266.93
279.404
233.601
271.338
209.692
216.132
266.284
269.6
211.701
211.252
253.961
213.903
244.001
211.967
239.328
233.338
233.912
212.454
283.397
226.208
264.925
214.509
210.919
213.499
213.936
250.84
212.452
213.452
210.728
252.369
239.055
260.204
240.392
221.294
291.283
212.693
212.034
210.435
261.494
221.668
212.681
235.522
232.435
210.888
219.146
212.203
236.667
212.747
217.613
211.865
226.901
229.726
210.529
212.416
245.729
231.352
237.009
252.852
272.034
229.034
255.409
212.063
246.842
211.925
254.427
230.754
247.876
259.504
254.925
250.359
264.658
237.049
276.213
257.38
255.444
212.134
211.279
209.294
210.728
236.16
211.188
241.273
280.917
225.637
212.198
222.986
257.784
211.611
211
209.048
242.822
217.528
260.248
213.34
211.107
211.415
233.488
229.139
257.082
212.402
242.525
234.183
209.075
253.753
250.71
257.556
234.149
212.366
259.199
248.179
220.836
213.572
209.26
220.088
238.537
213.534
259.164
214.631
212.515
241.495
212.58
238.208
248.929
262.569
226.685
212.226
234.229
265.998
262.557
212.364
214.926
229.841
277.312
211.966
211.374
258.224
255.849
227.094
251.929
222.811
239.205
216.515
279.343
231.413
254.168
210.632
229.094
252.815
211.404
213.003
279.741
236.686
211.165
213.396
213.311
210.675
270.901
246.91
213.822
212.317
212.919
227.465
215.56
211.805
211.473
274.28
222.903
249.615
214.532
214.444
270.949
212.385
217.09
211.701
212.207
211.499
247.552
251.481
214.449
228.639
211.435
213.348
213.21
256.33
239.595
212.833
212.179
257.449
256.333
212.168
235.748
254.732
212.548
212.354
236.616
246.101
235.739
263.972
219.567
235.872
210.418
247.925
241.305
275.736
210.805
212.976
271.194
210.926
241.257
218.309
210.477
210.6
210.731
278.243
215.965
233.364
212.895
229.687
265.812
255.906
275.753
270.712
213.453
213.208
210.488
212.308
248.287
234.321
247.337
261.815
211.223
251.336
211.811
233.539
233.428
220.751
216.226
209.161
211.713
239.637
220.704
210.261
211.483
235.023
212.88
234.278
209.131
247.46
213.428
231.891
257.117
222.168
215.24
221.017
242.583
256.118
228.606
211.73
264.903
212.617
238.423
212.469
260.898
214.962
234.62
211.565
212.337
211.248
216.883
248.622
237.061
211.968
209.921
218.222
217.41
244.458
228.7
211.63
213.159
237.141
233.248
260.687
214.037
255.329
229.024
232.419
231.055
243.226
235.151
257.69
241.54
228.797
212.317
233.075
244.548
275.283
220.709
259.513
265.447
211.707
217.199
264.413
249.455
244.459
210.361
245.796
256.057
211.595
254.888
213.403
263.091
242.228
258.282
213.379
210.938
211.229
261.01
209.786
236.585
212.951
210.175
213.761
213.23
271.866
234.94
211.563
212.024
213.067
231.852
258.781
266.445
211.237
212.028
237.154
239.238
245.251
233.272
212.943
210.885
210.747
243.667
212.67
224.733
249.935
240.09
213.018
210.336
258.625
259.23
213.762
212.98
288.489
215.359
263.519
210.715
270.616
250.039
209.614
247.503
286.624
239.414
218.528
252.764
212.16
223.657
263.543
235.146
212.298
212.728
257.651
210.22
264.882
247.483
211.153
273.001
245.616
210.534
212.287
212.128
210.569
218.185
241.589
212.933
253.123
214.486
229.391
212.184
255.161
209.493
246.668
209.395
276.955
225.878
213.295
223.089
209.862
282.201
267.619
212.684
211.474
236.608
249.244
240.028
215.152
211.014
234.861
225.686
262.181
260.459
212.998
213.036
211.991
242.974
223.23
275.672
215.409
244.36
242.181
240.184
235.666
240.792
213.615
268.742
211.383
253.58
233.243
210.475
217.068
231.141
264.536
239.648
271.15
256.06
227.463
210.94
216.721
270.067
246.351
220.652
239.687
210.28
242.113
241.148
212.148
247.61
251.884
234.536
237.561
211.172
244.386
263.683
258.836
211.546
221.782
211.307
208.853
229.228
213.474
252.644
221.234
209.189
262.57
251.347
215.03
260.155
213.519
239.558
253.124
211.893
270.44
237.425
210.745
212.917
224.943
210.332
251.745
246.279
210.141
243.224
210.766
269.836
213.157
212.048
259.867
261.629
212.091
255.255
247.438
211.847
276.486
240.423
211.612
247.424
212.996
210.463
237.819
223.446
209.189
232.15
210.569
230.81
233.46
229.084
269.543
234.552
260.051
243.608
254.884
241.48
211.445
248.349
242.722
249.474
229.386
214.104
222.338
261.886
257.368
249.335
212.48
255.361
262.526
242.067
236.6
243.04
212.623
209.777
211.237
211.348
216.018
237.469
240.947
212.912
212.687
212.407
258.063
238.115
218.3
239.16
213.147
254.278
235.745
245.126
210.629
215.889
245.174
218.107
234.377
231.117
254.632
211.026
212.242
231.482
230.016
210.314
285.38
240.165
211.679
212.864
264.185
244.945
235.291
211.375
222.191
225.066
246.104
276.678
236.148
213.201
211.48
262.245
211.741
208.932
215.422
260.71
261.281
266.913
231.55
229.649
209.511
231.171
223.7
217.77
258.534
255.912
232.166
264.91
240.539
212.841
231.393
239.257
211.696
247.399
247.613
215.643
268.261
262.941
270.831
213.342
213.637
215.741
211.951
211.493
242.472
214.542
231.498
210.656
212.168
235.967
212.559
208.768
258.38
237.704
255.563
248.691
223.421
258.998
211.794
237.921
213.223
278.266
210.083
274.237
240.778
247.104
244.688
260.057
214.608
244.366
217.034
238.422
232.265
214.43
241.93
213.271
211.247
263.807
274.378
239.819
212.617
214.291
212.097
264.936
260.756
246.707
218.408
244.306
217.707
234.818
208.323
211.487
220.476
211.794
235.802
228.791
210.427
214.107
211.272
257.111
213.619
251.772
210.597
225.824
272.598
208.713
211.219
261.42
212.211
209.901
254.237
231.248
278.185
271.665
214.38
245.769
210.951
261.155
227.325
237.906
216.427
209.558
259.463
213.243
243.471
211.926
212.858
276.096
260.799
242.955
211.567
212.55
209.407
212.07
272.08
238.311
229.263
267.052
244.066
212.333
212.18
256.447
251.109
213.15
270.779
232.45
213.59
246.862
210.601
211.172
259.57
236.78
243.931
216.253
238.855
216.68
213.736
244.891
241.238
255.215
284.472
235.105
292.154
212.484
212.829
241.246
261.745
260.673
239.162
261.517
214.731
212.391
248.127
249.865
235.129
212.75
250.838
210.68
212.074
222.474
212.09
260.715
211.495
231.775
248.074
213.332
211.7
211.475
232.568
213.886
210.565
249.08
235.152
264.016
210.222
249.806
259.559
228.598
212.179
213.115
224.508
259.239
234.215
216.013
269.235
240.324
255.743
213.467
238.62
230.522
246.29
240.17
238.409
210.774
211.021
229.671
216.793
212.032
211.225
214.625
230.958
257.392
229.402
255.705
221.519
213.661
276.166
216.716
233.305
212.71
250.969
212.092
241.159
224.95
210.866
236.557
210.78
280.147
211.482
212.945
232.353
260.53
210.129
272.062
212.291
231.734
212.226
215.846
261.56
254.05
228.358
233.017
230.43
242.301
213.152
210.457
251.281
261.122
258.237
240.591
250.988
248.221
242.34
259.189
216.327
237.225
238.737
248.992
246.227
209.128
234.605
227.565
214.52
212.28
237.675
243.357
230.93
222.916
214.913
235.037
275.299
263.64
214.774
220.57
254.311
272.494
207.586
256.76
222.036
265.435
271.277
274.369
252.584
210.714
210.336
238.648
213.261
239.12
234.105
266.214
208.61
244.347
212.464
210.414
264.298
243.426
225.478
235.911
212.817
247.272
228.893
230.003
214.327
211.527
215.944
228.583
222.038
213.019
260.496
213.827
249.377
213.829
212.816
237.881
210.994
255.59
210.145
258.606
277.399
263.006
265.761
279.25
214.168
222.484
212.462
255.929
247.379
223.573
212.568
209.437
235.128
236.875
256.968
261.925
240.269
223.426
212.755
212.026
275.935
209.277
218.741
266.623
209.152
211.55
246.27
235.148
287.608
254.297
250.941
211.802
268.4
236.251
240.905
240.402
238.637
212.269
257.947
213.674
211.098
213.703
230.702
231.866
213.098
212.198
212.747
257.271
211.702
276.337
246.521
258.181
212.679
244.693
236.823
233.149
233.264
240.646
213.613
262.013
210.994
214.803
260.346
242.49
213.079
214.332
213.083
266.031
246.912
213.886
211.338
212.647
245.869
211.964
271.218
215.613
252.428
210.263
239.096
246.979
221.106
287.223
260.569
238.214
210.081
213.182
273.098
241.178
213.794
227.859
211.543
257.719
211.902
249.546
213.079
216.569
233.899
273.795
212.132
209.355
210.083
212.04
254.261
212.034
237.228
262.313
211.866
225.455
233.933
283.793
211.679
210.992
236.915
266.843
236.244
234.638
256.215
210.155
251.426
227.255
222.518
214.029
210.42
273.843
211.517
211.924
247.425
243.524
223.712
251.352
223.854
210.491
214.104
213.782
235.15
210.958
210.882
266.223
247.748
230.858
276.844
218.136
243.387
211.452
210.629
215.221
211.682
218.008
234.225
242.051
248.391
210.296
214.907
213.98
227.198
259.905
210.377
213.177
236.371
211.24
232.234
260.697
224.265
211.969
250.184
207.163
263.594
229.993
213.752
210.61
256.217
215.212
257.085
213.29
286.876
278.735
216.069
251.516
230.886
240.479
257.671
210.922
255.307
241.396
207.607
267.332
261.654
238.301
259.83
212.636
245.034
213.724
211.41
211.333
227.141
269.883
212.719
212.013
265.374
256.785
220.537
262.658
212.034
243.586
212.956
228.438
226.536
255.591
259.86
238.939
211.295
240.813
248.25
209.356
218.54
211.915
235.927
219.78
246.047
247.059
243.771
238.232
276.004
243.001
209.576
211.237
224.386
244.921
211.647
237.809
232.088
254.313
259.851
213.283
243.751
210.798
213.105
237.114
273.82
246.502
256.297
255.675
242.97
213.601
212.297
237.25
256.707
214.401
235.665
211.983
213.092
212.827
254.894
208.364
230.757
210.838
275.971
259.495
212.773
237.588
257.18
222.678
212.555
212.906
210.328
213.46
237.376
238.434
235.496
212.74
241.275
260.907
245.61
265.663
237.17
211.527
261.679
211.283
233.745
243.34
212.761
244.159
259.152
211.965
207.856
278.337
245.28
211.436
212.512
216.322
249.91
223.196
239.858
256.221
210.496
214.846
248.077
247.367
211.126
219.839
211.76
211.51
208.689
209.895
262.024
246.791
213.315
246.054
240.703
252.606
270.454
212.079
250.744
214.111
260.95
227.586
275.813
286.921
211.225
236.352
256.191
212.441
252.24
208.466
247.683
240.587
210.22
231.737
210.352
238.018
211.872
256.987
261.833
258.31
213.604
237.882
258.203
269.509
213.503
218.435
254.445
278.013
211.584
236.131
242.192
215.714
210.656
209.719
218.948
235.823
285.057
213.972
252.589
214.147
291.118
237.828
258.166
212.173
227.051
213.815
241.651
263.225
237.93
213.869
244.825
235.604
218.659
248.273
253.053
210.973
212.931
213.039
215.402
238.527
254.029
212.498
222.924
259.477
248.657
210.337
237.772
212.75
262.362
212.925
215.154
290.425
264.695
208.138
253.911
235.393
211.202
265.766
266.542
210.621
211.554
212.965
249.255
214.609
237.797
270.176
212.776
232.596
258.868
212.696
214.898
222.682
266.695
230.8
247.928
238.449
216.371
212.315
254.147
209.692
240.498
244.02
232.483
212.6
237.18
213.58
250.86
256.9
213.062
277.734
213.101
211.077
241.217
238.732
214.385
232.819
218.392
211.013
265.459
218.574
227.527
265.769
213.501
237.548
215.375
212.799
239.557
212.126
211.319
209.224
257.294
211.195
232.206
211.458
214.356
255.362
248.874
212.299
212.456
212.54
220.852
233.97
236.906
214.787
231.69
212.856
213.123
213.819
221.605
209.245
242.504
232.552
233.62
211.956
216.887
260.886
211.972
212.63
251.754
210.405
210.419
256.642
251.566
233.347
219.384
262.485
211.764
257.377
210.922
212.32
235.81
213.37
213.21
211.729
234.434
241.165
212.108
226.413
215.629
258.955
213.242
228.398
210.82
239.891
213.808
236.342
242.834
254.835
214.767
242.497
241.684
268.616
231.981
212.257
220.513
237.52
210.784
238.774
275.763
238.968
210.544
210.768
227.679
216.508
213.641
253.935
265.729
244.376
254.094
218.96
272.772
211.313
213.212
260.318
250.081
214.038
208.556
243.809
229.211
209.519
216.898