# vtk DataFile Version 3.0
vtk output
ASCII
DATASET POLYDATA
POINTS 10000 float
-22.8926 -33.9796 7.628
-21.6184 -34.6624 11.5999
-22.985 -33.0963 9.13771
-22.614 -37.7502 14.2807
-22.1811 -34.2603 10.3681
-22.2897 -34.7781 13.1381
-23.7779 -30.0576 7.73421
-21.2575 -31.5148 10.3758
-21.8959 -31.9039 10.1869
-23.1427 -31.19 8.54502
-22.3008 -35.1507 9.17914
-21.9864 -35.9573 9.25894
-22.3942 -36.8131 13.0264
-22.3743 -34.746 11.8051
-20.9101 -32.908 12.216
-21.5914 -31.9704 10.3542
-22.484 -34.9489 8.27006
-21.8321 -36.7644 13.593
-20.5455 -32.0839 10.5205
-19.4604 -31.0533 10.9497
-21.9754 -45.4899 8.05037
-22.27 -33.7801 13.6922
-20.0953 -31.4432 11.7719
-19.8827 -46.9046 8.62212
-21.9026 -31.6879 9.3599
-23.5895 -30.9956 7.42485
-20.6986 -39.976 8.68672
-23.2263 -37.7306 14.7135
-23.046 -31.6755 8.40765
-18.4125 -30.4496 11.6093
-22.0042 -37.9228 8.00995
-20.737 -30.6576 9.34803
-23.3103 -28.9441 8.1599
-22.3396 -34.0089 8.82811
-21.4323 -29.6794 10.0229
-21.7169 -36.5075 11.9285
-22.7547 -33.0596 9.4891
-20.7311 -31.6076 10.4451
-22.2471 -32.3588 10.4018
-20.0563 -33.5028 12.5227
-22.7112 -34.681 7.8353
-20.4644 -39.2905 8.61516
-20.7648 -32.9041 11.1938
-22.0597 -36.7111 11.1022
-21.8911 -30.9056 10.2438
-20.3715 -29.2214 10.1251
-21.7347 -32.2157 10.4892
-21.373 -29.7114 9.85804
-20.8476 -32.0698 11.0821
-20.9952 -44.3687 8.08848
-20.956 -32.2783 11.9006
-21.9818 -36.0073 9.80174
-21.5777 -36.7844 9.7451
-21.5128 -37.2438 8.4905
-21.0826 -33.1081 11.6097
-20.3041 -40.593 9.49974
-21.6982 -36.6329 13.5378
-23.3953 -32.9839 7.06107
-19.8811 -41.2552 9.66453
-22.0251 -33.6371 10.8676
-22.7514 -31.2297 8.78169
-22.2686 -35.279 9.67558
-23.69 -32.1965 7.39732
-21.0268 -29.0071 9.91592
-20.8871 -40.4217 9.76943
-23.7484 -28.5616 7.22328
-23.3715 -38.9031 15.3017
-21.3375 -38.8482 10.5496
-27.7225 -38.4772 17.7952
-22.8504 -37.4462 14.1821
-21.2759 -34.4463 12.4798
-21.5087 -37.042 9.12242
-21.2008 -35.1191 12.2903
-21.7071 -35.7486 9.19025
-22.7674 -38.3543 14.5317
-20.4822 -41.9693 7.75158
-19.188 -30.2994 11.1109
-20.2489 -44.7066 8.07754
-21.5796 -34.2736 11.1597
-22.4194 -47.2275 8.06806
-20.6119 -45.0158 8.87886
-20.6906 -40.7407 7.56336
-22.9644 -32.5688 9.53645
-21.0424 -32.6779 11.7863
-20.2112 -30.2999 10.489
-21.7051 -34.785 12.3996
-21.7771 -35.7456 9.88043
-20.2153 -29.0786 9.71301
-20.5755 -39.8388 8.70267
-22.005 -35.4057 13.0435
-20.7722 -39.1464 8.55232
-22.896 -32.2658 8.68989
-20.5194 -32.853 11.629
-30.4876 -37.7826 18.7552
-22.0429 -36.4633 8.99854
-21.1581 -27.4994 9.12221
-21.6958 -39.0656 8.15634
-22.6565 -35.345 7.91933
-22.5256 -33.6637 10.3538
-18.8667 -42.1967 8.22075
-20.9779 -38.1148 9.51998
-22.2369 -33.6662 8.86095
-21.2203 -37.5425 8.59127
-20.1399 -32.6018 11.0365
-22.1356 -35.7667 8.37658
-22.4472 -33.7386 8.66616
-20.3265 -32.3403 12.0862
-20.6758 -29.6816 10.5025
-21.4061 -32.5826 11.4972
-21.3981 -37.0202 12.3258
-22.3533 -32.9638 9.0769
-20.7245 -32.3655 10.7448
-20.567 -32.2149 11.8647
-20.3505 -31.0994 10.9606
-22.7322 -33.7697 9.37345
-22.3965 -31.5138 9.95672
-23.8585 -30.6472 7.15554
-23.0852 -29.3287 8.55189
-22.7017 -32.2784 8.45007
-23.023 -29.9112 8.74168
-21.4215 -34.5721 13.1103
-23.3189 -39.6609 15.0324
-21.9044 -29.1426 9.94407
-21.3432 -32.9261 10.6473
-23.2953 -32.246 9.0571
-20.7579 -40.5847 8.53387
-19.3795 -29.1735 10.5236
-22.0271 -34.4952 13.6371
-23.2595 -30.5864 8.48549
-22.9304 -32.6735 9.22981
-21.9245 -30.7905 10.1535
-20.6821 -41.7034 7.86899
-23.9948 -31.105 7.89434
-21.2197 -31.9494 11.1644
-22.0192 -29.405 10.1453
-23.3049 -32.5001 7.89853
-22.8844 -34.2031 9.50471
-19.6928 -28.3444 9.89334
-18.9756 -30.9186 11.4692
-23.3089 -31.7156 8.2112
-22.2508 -32.2773 10.2536
-22.6659 -45.4191 7.97948
-21.3465 -34.1187 12.0571
-24.2488 -39.0938 16.4257
-21.6653 -30.0018 10.0182
-22.5753 -35.5017 13.5011
-23.1675 -31.0784 8.01901
-21.4223 -37.3162 8.27114
-22.5727 -31.1139 7.62955
-23.5606 -29.9057 7.35703
-21.5714 -33.6285 11.5392
-21.5026 -43.7109 7.92458
-23.511 -44.32 7.40318
-23.2346 -38.0885 14.4797
-21.5831 -34.0257 11.1317
-22.5017 -31.6211 9.57264
-21.6695 -37.1287 7.94716
-22.4401 -31.8296 10.214
-21.9693 -36.7477 10.0852
-21.0959 -32.404 11.0129
-23.2724 -30.5383 8.17605
-18.8077 -29.1609 10.801
-20.0372 -40.3907 8.27366
-20.3656 -31.4062 11.4084
-21.8221 -35.4345 13.3358
-23.0317 -36.5381 14.3055
-20.2809 -40.7145 9.61487
-22.8834 -31.4169 7.6092
-21.6566 -32.3251 10.8687
-24.7998 -31.3471 7.35205
-22.5221 -30.0003 9.34712
-21.4352 -36.7037 9.71103
-23.2888 -38.5624 14.9315
-24.4878 -39.1534 16.0506
-21.9441 -30.9271 9.85909
-21.7464 -33.7041 11.2733
-23.8342 -31.6696 7.60184
-22.5334 -31.6792 9.68866
-21.9383 -29.3601 9.29286
-22.6311 -34.6546 8.82339
-22.3842 -30.5963 9.27125
-22.5995 -33.9718 9.44623
-22.9331 -32.4119 8.59178
-22.5242 -32.9459 8.18728
-23.1286 -33.9577 9.11263
-22.0635 -33.2878 10.8943
-21.9402 -32.2543 10.2853
-20.301 -30.4323 10.8822
-20.4105 -33.753 12.0104
-22.3668 -31.9592 9.76736
-22.6383 -34.642 10.0627
-21.1592 -30.9277 10.2617
-22.7409 -33.6038 9.91998
-19.8819 -31.3181 11.2033
-23.4263 -39.0487 14.9008
-22.1861 -32.5091 10.5997
-25.2169 -37.3984 7.43038
-21.9445 -35.9762 12.7075
-20.7447 -33.6854 11.9072
-22.6923 -31.9131 8.77847
-21.0661 -37.22 9.60982
-20.9986 -31.4688 11.2958
-23.4362 -33.2915 7.72776
-23.557 -33.7067 6.88626
-20.452 -32.2056 11.2258
-22.5049 -34.901 10.5563
-23.4707 -32.1656 8.06274
-22.0728 -28.276 8.82448
-22.7875 -31.1328 8.71673
-24.147 -39.088 15.7428
-20.3194 -39.4637 8.09161
-24.7655 -33.6286 7.03931
-23.2404 -28.818 7.87031
-22.7784 -32.6533 8.64113
-21.506 -36.1508 8.73322
-20.8298 -40.6193 8.7478
-22.5215 -29.103 8.90383
-22.8018 -30.9138 9.5019
-21.6696 -33.4184 11.296
-20.004 -41.8427 8.55246
-19.7076 -30.2297 10.7838
-20.878 -30.8841 9.90905
-21.3659 -36.8648 8.75642
-21.0302 -30.7108 10.5091
-22.0938 -32.7547 10.3532
-21.9579 -34.628 8.6399
-19.5319 -44.2684 8.04382
-21.0636 -38.2542 9.68545
-23.0372 -31.6835 8.80027
-22.0746 -30.9561 9.80683
-21.2251 -36.3386 11.9079
-21.8641 -29.5082 8.93373
-22.1083 -34.5621 9.43162
-21.3499 -38.3818 9.00439
-23.1695 -31.5903 8.8088
-23.6932 -31.6948 7.60001
-22.7393 -29.9995 9.27484
-20.503 -32.321 11.6493
-23.2829 -31.3336 8.36164
-23.4603 -33.6971 8.59865
-22.2849 -33.4803 10.338
-21.9117 -32.019 10.424
-23.0514 -32.4753 8.69606
-22.0033 -34.7886 11.5518
-18.5881 -29.7239 10.66
-19.8494 -43.4768 7.34921
-20.306 -39.7198 9.4906
-22.3835 -30.2914 9.4936
-20.3005 -40.3466 8.47476
-22.396 -28.9404 8.71545
-22.4072 -35.4394 10.1502
-21.5889 -37.7336 8.34284
-22.0243 -33.1088 10.4526
-21.5942 -33.0643 10.8262
-19.6052 -42.4354 8.02244
-21.6472 -39.1436 7.90673
-23.1195 -30.6607 8.77619
-21.4831 -37.8307 12.6403
-23.8479 -39.1701 15.253
-21.222 -37.3779 8.63738
-21.6994 -36.2684 9.21282
-22.8681 -33.2937 9.6193
-20.6842 -41.5175 8.13622
-20.6447 -32.3358 12.3309
-21.2862 -29.1682 10.1887
-22.563 -33.5126 9.89633
-25.6411 -27.4661 5.92574
-20.6562 -32.7576 11.8211
-23.5725 -35.432 7.58775
-22.2097 -34.285 8.24161
-22.6326 -35.278 7.74253
-21.453 -34.0357 12.6208
-23.8687 -31.0785 8.25456
-21.6156 -35.9425 12.1849
-20.5478 -32.2728 11.7544
-23.8695 -31.641 8.36445
-22.2038 -35.5399 8.96116
-20.9037 -32.1506 10.7896
-21.2074 -40.6597 7.67785
-21.2375 -36.591 9.78607
-22.3282 -32.4025 9.86386
-23.4968 -32.8362 8.43786
-21.0258 -39.5306 8.36267
-28.4602 -38.2645 18.1005
-22.6544 -32.6784 9.33181
-20.1625 -29.4303 10.0184
-22.0657 -37.3325 13.1668
-21.5095 -31.9827 11.2776
-19.5071 -45.2372 9.09439
-21.9574 -32.0427 10.6864
-22.6289 -32.576 9.8995
-23.5814 -29.8103 8.03971
-21.4281 -33.0701 11.189
-21.8223 -35.2011 13.2638
-22.1837 -29.9239 9.55171
-20.2433 -40.686 8.80529
-23.4286 -32.0323 8.6383
-23.3181 -33.4085 7.72999
-22.4866 -31.756 8.68449
-21.6355 -31.8202 10.7064
-22.0696 -44.1933 7.98677
-21.1045 -34.2982 12.5613
-20.6215 -32.3947 10.9033
-23.026 -38.1802 14.3609
-21.2002 -32.8566 11.591
-21.6929 -34.789 13.0144
-19.2017 -29.311 10.0762
-22.9111 -35.4638 9.37779
-21.5038 -33.0356 10.9655
-21.9661 -37.0834 8.07889
-20.6093 -42.0166 7.82296
-21.5639 -35.6734 13.2667
-21.6315 -37.5838 13.2695
-22.4461 -34.9738 10.4174
-22.6966 -33.5332 9.50929
-22.6037 -31.7533 9.71361
-20.2614 -32.5802 11.1615
-20.3195 -32.5449 12.5849
-24.0526 -29.4108 7.27113
-22.0068 -34.6715 9.48908
-23.8048 -27.3471 7.02903
-20.7847 -32.6623 11.954
-21.0882 -33.7616 11.365
-22.4977 -33.771 13.254
-23.2575 -31.4972 8.2619
-22.5334 -34.0894 10.0646
-22.625 -36.3691 8.04251
-22.4343 -30.0483 9.44505
-20.2768 -40.477 8.65186
-23.6247 -42.6654 7.52829
-25.7935 -39.0812 17.0156
-22.5455 -37.4895 14.0125
-21.9229 -33.78 10.7662
-21.8709 -35.5262 7.98659
-22.3597 -31.0967 9.95285
-20.1372 -41.3623 9.45175
-20.328 -31.3719 12.3796
-22.894 -31.8504 8.97772
-21.7602 -38.4763 8.45404
-20.0163 -30.7179 10.7624
-22.2735 -33.6337 9.25396
-24.3028 -30.8051 8.05993
-20.9966 -34.0204 11.6912
-22.5846 -32.6548 8.69982
-21.4695 -33.589 13.2071
-22.4057 -34.0313 9.33272
-24.2567 -39.2537 15.8983
-22.0366 -34.7274 13.4448
-21.0276 -33.0769 12.0233
-22.6546 -32.7872 8.97674
-22.9643 -31.2606 8.396
-22.0216 -31.8799 9.54703
-22.7216 -35.2334 8.01357
-21.7767 -30.6169 10.0401
-17.4286 -29.5273 11.5341
-23.196 -30.7095 8.73349
-23.3251 -33.1066 8.28699
-23.8129 -29.9299 8.19529
-22.5862 -32.3333 9.08679
-23.5126 -32.5234 8.15035
-22.1688 -30.8987 9.55004
-26.3648 -35.7372 26.0452
-23.0665 -32.6393 9.23881
-23.0568 -39.0872 14.8992
-22.8643 -45.2214 8.02073
-22.4643 -32.9236 8.21673
-23.7337 -38.9002 15.5071
-22.4932 -36.1374 10.3396
-19.6357 -41.9265 9.35788
-22.2649 -37.3929 13.6594
-21.588 -28.6761 9.39446
-21.4779 -34.9189 11.9474
-23.987 -29.5174 7.40331
-21.6253 -37.7129 11.1047
-22.4247 -35.6754 9.03281
-26.2658 -39.1609 17.0657
-21.5882 -37.627 9.42601
-19.8415 -30.8977 12.1963
-22.7492 -37.0367 14.0235
-20.9493 -34.322 12.0146
-20.7923 -32.6129 10.9895
-23.0687 -32.4722 7.72296
-23.2276 -38.0899 14.6064
-23.3703 -29.3526 8.19024
-28.876 -37.7424 18.1056
-22.0269 -38.5501 13.7348
[...]
POINT_DATA 10000
SCALARS t float 1
LOOKUP_TABLE default
229.634
220.491
221.316
218.253
219.346
219.913
230.186
221.101
220.448
224.672
220.181
219.577
219.307
219.909
221.468
220.74
224.94
219.518
221.788
221.554
222.452
219.535
221.727
218.792
221.791
232.147
221.037
217.778
225.288
220.813
225.86
222.681
228.062
222.462
221.16
219.549
220.554
221.561
220.113
221.873
227.946
221.679
221.583
218.067
220.615
221.412
220.565
221.372
221.52
223.083
221.593
218.417
218.202
222.918
221.464
217.079
219.661
234.194
216.479
219.94
223.631
219.043
231.917
221.651
216.255
234.733
216.986
216.452
214.848
218.288
221.052
219.685
220.918
219.986
217.889
226.875
221.098
223.27
220.319
221.634
217.99
228.482
220.552
221.585
221.485
220.616
218.59
221.95
220.998
220.052
222.061
223.75
221.904
214.257
220.438
224.563
224.579
227.149
219.407
223.75
218.091
222.573
222.297
222.016
224.007
223.309
221.752
221.382
221.212
219.822
221.97
221.571
221.778
221.626
220.409
220.227
234.312
225.461
224.961
224.229
220.535
217.092
221.503
220.863
221.925
221.751
221.036
219.726
225.124
221.179
220.586
226.03
228.714
221.274
221.25
228.263
219.801
221.685
221.272
226.456
220.122
222.858
221.065
216.072
220.907
219.385
227.937
224.298
230.796
233.036
220.884
224.438
227.542
217.804
220.411
220.911
226.525
220.07
217.473
221.271
227.049
220.68
223.614
221.714
219.974
218.335
216.72
230.769
220.653
232.516
221.79
218.419
217.389
216.296
220.773
220.501
230.574
220.653
222.289
222.03
221.757
220.195
224.14
226.363
220.906
220.054
220.378
221.487
221.894
220.547
218.662
221.136
219.43
221.701
217.279
220.136
230.325
220.136
221.671
223.507
218.456
221.507
229.127
235.157
221.833
218.655
227.26
225.046
223.948
216.537
225.039
234.123
229.933
223.857
222.057
220.439
223.972
221.174
220.673
221.408
221.311
221.482
221.667
221.27
220.142
223.11
223.988
217.569
223.355
220.806
220.098
223.497
220.109
219.712
223.302
230.594
221.974
221.882
225.611
223.395
219.701
220.449
223.577
220.011
220.655
229.133
217.471
221.451
222.26
224.889
218.232
223.689
220.102
220.544
224.912
226.317
223.752
219.564
216.899
222.11
219.602
220.107
224.138
221.467
221.44
219.624
245.63
221.801
229.401
225.445
228.409
220.959
226.373
220.145
221.87
225.446
221.032
221.412
227.647
218.485
220.291
224.569
223.132
214.569
221.08
221.402
219.295
221.098
217.113
220.436
219.971
228.291
220.931
220.068
221.542
220.197
223.913
229.082
224.065
220.75
223.534
221.195
221.644
217.926
221.392
220.407
221.086
219.277
220.726
225.608
226.291
220.141
219.466
218.62
220.285
220.566
221.99
221.493
233.913
219.985
237.072
221.651
221.197
219.793
226.202
219.105
226.004
221.612
221.16
227.408
215.599
218.549
219.951
226.707
220.363
217.01
221.202
222.537
222.747
221.537
220.987
227.776
221.395
223.65
220.425
220.485
216.42
219.85
221.471
222.309
225.496
221.276
226.53
220.656
219.885
223.922
225.456
227.289
222.03
226.541
221.259
216.922
221.114
217.372
222.623
226.206
216.766
217.691
217.245
219.01
222.671
220.676
232.871
217.623
220.552
215.528
218.393
221.132
218.555
221.361
221.507
229.529
217.745
227.558
214.37
218.737
221.558
225.164
222.312
220.223
220.444
221.46
221.342
217.946
219.334
221.599
218.852
223.236
221.93
221.059
220.658
220.224
221.724
220.232
224.287
216.36
222.164
230.569
219.414
215.573
220.563
220.713
226.86
220.683
221.812
218.159
221.722
223.546
221.58
226.691
235.138
220.771
217.769
218.487
228.747
222.871
223.696
221.329
230.507
219.242
221.393
235.285
222.738
219.537
220.792
229.488
218.697
225.341
219.223
222.694
219.572
220.398
232.656
222.758
220.916
222.593
219.738
221.381
230.479
220.696
217.995
221.096
221.357
219.348
226.111
221.102
219.024
221.824
220.961
221.544
223.21
225.238
220.838
221.829
235.685
235.173
221.076
221.298
219.139
218.797
225.67
220.976
221.677
222.268
221.036
226.407
218.842
217.746
226.502
245.42
220.363
219.669
221.356
217.536
220.023
222.299
223.254
216.741
220.244
223.688
241.444
219.398
227.619
217.623
225.49
220.63
219.753
223.83
216.717
233.738
225.136
221.662
224.043
230.341
221.982
221.754
220.964
221.73
220.024
219.561
221.131
226.446
220.954
220.415
232.859
229.772
220.723
221.259
218.886
221.273
221.059
219.387
230.95
217.781
225.589
221.92
221.429
218.466
224.759
219.768
219.306
219.657
228.416
226.351
220.962
221.125
231.177
216.294
234.527
217.995
228.077
220.003
220.193
221.111
219.719
221.844
223.287
224.007
220.448
219.914
226.497
234.122
232.558
214.17
235.531
224.47
219.921
224.199
220.245
221.131
219.949
218.959
220.562
220.055
220.607
222.983
220.899
230.259
218.412
220.691
222.549
226.722
221.27
222.037
221.521
221.304
216.197
219.495
222.088
220.681
225.246
220.295
220.236
219.816
221.926
218.014
227.249
221.155
226.625
216.983
222.292
220.321
219.99
220.998
217.866
220.88
220.055
224.79
226.814
219.452
224.585
222.471
222.527
218.757
218.036
224.656
224.654
235.25
220.484
222.09
221.623
221.227
220.008
219.793
218.837
220.31
221.72
235.478
221.074
221.485
221.68
221.002
220.069
221.783
219.756
221.751
222.933
220.861
224.101
230.041
229.07
222.923
217.929
221.776
220.39
230.204
221.748
229.739
221.157
220.071
220.63
219.35
219.602
221.904
218.581
221.909
229.292
222.064
221.891
219.76
221.594
221.361
235.907
218.472
222.52
228.482
221.38
223.499
221.498
223.897
219.904
215.466
221.481
221.388
220.894
219.843
231.247
222.354
217.133
220.017
222.428
215.879
220.541
220.298
216.925
221.494
219.591
221.43
221.533
221.165
221.93
217.905
229.258
219.009
217.514
218.858
220.819
220.129
223.952
229.428
221.622
219.47
221.393
226.443
219.236
221.599
218.397
223.582
228.063
221.094
225.263
218.175
224.144
221.504
221.305
218.978
220.224
221.484
220.841
235.346
221.044
219.7
220.13
216.7
222.431
218.619
220.167
221.863
220.188
220.163
221.54
220.439
220.295
221.691
218.823
219.254
221.913
221.257
221.304
222.258
222.314
220.975
221.649
217.851
222.985
216.367
221.205
224.376
221.676
223.028
221.186
244.792
219.032
218.764
224.455
221.379
223.178
221.172
220.698
213.637
221.214
218.299
221.693
226.183
221.795
223.522
221.437
219.858
218.201
220.21
226.921
221.841
220.608
221.572
234.428
218.912
222.336
222.42
222.401
229.308
217.818
220.978
219.887
221.574
225.085
219.237
222.726
222.817
220.977
221.411
228.936
217.544
220.095
220.428
221.437
225.089
233.714
223.105
220.325
219.531
220.558
223.9
218.952
219.095
221.2
223.674
224.921
229.793
234.561
220.874
218.985
220.405
220.749
214.038
219.22
222.146
218.502
220.719
221.59
219.559
224.104
220.858
220.716
221.82
218.894
226.149
226.872
224.144
223.216
227.828
227.25
220.215
230.354
225.294
224.485
219.508
221.393
224.519
223.397
220.459
227.024
221.293
220.656
220.791
221.895
219.776
218.15
219.185
221.521
221.454
225.284
222.024
223.232
222.441
219.736
221.311
225.323
233.73
220.226
221.41
219.436
223.329
231.022
222.466
220.519
220.841
220.937
220.966
220.594
221.379
235.106
221.883
219.888
222.024
220.977
221.18
222.384
221.26
220.601
246.624
221.179
215.411
221.003
220.404
223.55
222.108
221.842
219.64
221.503
224.142
219.789
222.781
222.114
220.614
221.485
217.994
219.1
218.067
220.485
221.378
224.679
223.032
213.67
220.69
224.689
227.223
220.665
219.474
219.48
220.532
220.542
222.389
221.624
220.834
222.157
223.33
218.839
220.937
221.006
221.601
221.187
220.797
220.957
221.972
221.594
229.067
228.748
222.146
217.04
221.097
221.111
221.675
231.354
217.793
221.598
221.807
218.524
217.299
219.234
220.948
219.786
228.192
219.667
220.184
219.537
224.394
219.949
231.376
222.494
224.678
219.257
229.089
220.148
221.133
223.755
221.739
225.194
220.482
224.527
221.571
220.084
219.419
222.954
221.39
226.482
225.886
220.69
227.121
215.568
221.73
223.631
220.808
221.284
220.036
228.523
218.434
220.172
221.354
220.646
221.616
231.47
221.666
231.366
217.442
218.443
226.576
220.515
219.904
228.035
219.304
216.232
220.144
226.293
220.6
215.393
221.82
216.525
222.269
217.599
221.054
220.728
221.028
219.282
226.13
221.518
225.099
223.097
219.441
219.624
220.63
220.346
218.356
221.072
220.642
223.13
217.949
221.004
225.75
220.522
216.264
221.126
222.727
234.396
229.503
222.985
219.665
220.957
221.515
220.721
236.721
218.76
217.668
220.152
221.457
220.181
221.461
220.972
221.34
219.133
219.958
233.224
220.475
219.854
219.873
230.614
235.29
218.303
221.562
220.735
235.636
224.557
230.68
224.995
221.146
221.318
228.895
218.837
222.765
232.363
220.868
221.686
226.272
221.941
224.596
224.065
238.108
217.45
221.842
229.739
217.573
219.919
220.665
224.545
220.33
221.66
221.891
221.558
226.134
221.699
220.69
223.439
221.48
220.813
223.525
218.222
220.967
227.424
222.439
234.923
220.807
220.491
221.666
221.877
216.947
226.8
223.895
219.031
221.913
221.067
222.412
223.195
232.495
221.338
222.069
226.063
221.535
222.995
222.35
220.519
220.999
217.487
220.572
231.763
219.835
225.05
221.114
230.067
224.461
222.371
228.095
221.258
220.9
227.856
222.742
220.998
221.212
233.409
220.454
234.527
220.836
218.734
222.034
222.332
220.813
221.005
220.564
232.345
221.415
221.179
221.031
221.026
224.567
221.241
220.438
220.468
229.265
226.634
225.544
221.719
221.376
226.313
221.064
221.555
221.377
229.853
219.519
221.418
221.398
220.416
221.708
221.504
221.268
225.347
221.537
221.262
215.609
222.108
220.387
221.199
221.605
227.227
220.911
224.323
220.294
222.665
219.487
233.42
219.184
222.051
217.459
214.651
220.943
230.123
225.183
227.737
221.669
220.037
218.647
223.477
220.895
222.824
218.423
221.442
221.834
221.403
223.958
219.474
228.799
228.307
222.951
218.929
221.353
225.167
221.531
217.198
221.32
234.452
220.011
224.721
222.363
220.658
221.929
222.49
222.275
229.183
221.944
226.043
223.007
221.88
224.823
224.97
224.196
218.684
217.888
227.239
213.848
223.512
221.129
220.198
218.834
219.298
221.119
232.696
214.147
220.757
219.744
220.87
225.213
225.63
227.695
221.682
220.353
223.69
220.01
221.201
219.909
218.784
221.848
236.204
215.253
216.466
217.61
219.475
222.964
229.88
216.382
216.98
220.301
224.554
221.347
226.472
219.839
220.593
224.434
221.996
221.026
222.077
228.526
218.536
219.144
218.737
221.557
233.327
217.014
220.44
221.164
220.82
221.437
220.793
221.254
221.57
238.387
220.161
228.718
221.268
219.406
227.264
221.475
221.899
221.027
217.956
220.652
225.008
226.922
214.122
225.373
220.77
220.673
221.71
238.036
217.657
219.702
220.963
228.816
231.185
221.755
226.488
223.129
221.536
221.521
220.737
227.858
220.705
228.772
218.422
217.213
221.8
224.309
224.728
225.387
220.787
221.246
219.663
216.636
224.488
221.258
221
222.156
214.322
230.897
221.032
218.065
219.24
223.997
222.286
229.11
225.9
225.885
218.847
221.156
220.939
219.482
220.808
222.124
221.526
220.767
219.985
237.751
221.433
221.039
221.646
218.292
220.998
220.565
221.51
227.763
223.055
221.504
220.807
221.858
218.617
219.911
221.674
228.714
220.335
219.963
226.051
219.552
221.536
220.96
228.392
220.049
224.708
220.238
231.066
220.474
217.414
220.444
232.127
220.222
221.985
221.756
220.151
220.453
221.102
228.477
226.954
221.623
216.123
219.606
220.698
219.574
219.156
220.448
218.762
215.655
224.944
220.951
221.405
217.077
220.402
229.016
221.843
219.148
221.415
228.753
226.732
222.229
219.801
222.818
220.178
226.827
223.335
221.599
219.312
219.914
222.313
228.252
227.608
219.066
221.339
224.317
227.214
220.141
228.459
220.547
236.892
223.86
223.793
220.156
219.696
220.501
228.134
221.113
220.517
220.027
221.445
220.31
220.401
232.571
220.898
221.697
219.11
222.098
220.859
225.782
216.22
220.43
217.744
221.547
220.439
216.564
219.35
220.84
221.599
221.583
217.379
217.617
220.949
219.926
222.751
222.089
218.728
231.317
221.728
219.498
221.128
222.084
219.031
233.991
220.396
229.805
230.733
221.449
225.621
216.104
224.243
222.727
221.468
219.858
222.638
233.867
221.252
220.731
220.671
236.762
221.015
228.834
230.749
220.896
228.305
222.318
220.157
220.183
217.34
221.931
221.254
217.329
221.235
216.652
222.351
220.333
221.459
219.217
222.01
221.114
220.307
224.462
221.041
220.219
220.246
220.974
222.391
236.452
220.954
221.807
221.508
224.849
227.425
221.208
221.464
220.535
218.503
224.947
225.628
220.596
220.206
219.265
221.899
219.933
231.803
220.351
225.579
218.201
223.989
221.737
217.25
219.281
220.687
214.139
216.689
221.333
221.188
221.116
220.482
217.994
223.262
231.779
227.9
220.237
220.852
219.24
221.98
217.345
218.999
227.806
220.601
217.629
217.404
222.053
228.443
222.151
225.594
221.382
221.3
222.934
237.955
223.409
219.572
220.717
220.113
219.94
220.058
219.691
231.029
220.914
221.024
232.406
226.551
221.41
225.325
218.331
220.206
225.008
218.143
223.444
227.593
220.923
220.027
223.566
218.671
217.431
217.939
220.392
223.791
220.997
224.46
221.251
218.756
228.641
228.736
220.851
233.772
225.448
221.29
224.369
222.66
218.091
217.804
218.478
221.261
224.022
220.806
221.767
221.781
219.521
224.376
226.514
221.886
224.973
227.709
229.39
219.481
229.016
219.386
213.615
226.8
218.475
220.794
217.118
219.345
220.531
224.313
218.87
222.26
221.443
226.193
222.287
222.119
218.418
220.999
219.277
221.89
219.729
221.116
220.346
224.386
225.099
219.96
220.36
220.797
221.946
224.293
220.821
221.943
221.364
218.201
223.583
224.096
221.72
221.364
217.234
216.88
221.592
223.58
225.108
221.69
216.912
223.15
221.202
221.829
234.637
221.593
220.912
221.351
234.815
219.439
218.245
221.665
221.961
223.618
223.099
224.784
228.513
219.908
221.21
228.098
220.596
220.176
220.654
225.027
219.445
221.543
221.672
226.734
220.659
217.897
221.661
220.678
230.887
219.451
222.867
237.333
221.197
219.844
220.51
220.677
220.622
221.089
219.841
219.387
226.956
221.182
240.414
220.234
218.225
220.437
221.568
221.577
225.841
221.512
221.85
216.095
221.183
222.846
221.204
220.118
233.161
221.601
230.721
230.229
221.402
237.03
221.261
224.382
220.384
226.014
221.522
229.451
221.143
226.406
222.503
224.277
221.768
219.951
221.07
221.65
217.461
221.246
218.474
221.859
221.632
228.052
230.046
216.543
220.964
221.876
219.339
227.529
231.333
228.645
220.745
230.064
221.868
225.633
219.689
221.646
220.89
221.018
223.744
222.532
221.755
219.747
216.494
231.072
221.175
220.442
221.421
220.254
223.267
220.964
214.251
222.012
219.292
220.697
226.944
223.039
224.73
226.309
222.532
232.539
220.423
225.491
220.134
219.614
219.986
221.005
225.088
219.383
221.117
221.233
221.756
225.719
225.316
224.35
220.848
218.127
222.215
219.019
229.652
220.427
222.706
221.501
216.989
221.877
221.934
227.747
223.628
221.088
226.215
227.249
221.157
217.962
221.535
221.43
230.43
216.53
217.862
220.966
223.74
220.938
222.082
223.125
223.008
221.177
228.78
220.78
229.277
221.513
221.104
222.984
231.621
220.996
219.724
218.347
215.433
217.366
227.761
228.903
219.411
220.458
229.19
221.78
218.902
220.225
221.306
224.924
217.299
219.829
217.558
220.963
217.164
220.964
221.007
221.324
221.258
217.288
220.665
226.518
220.802
225.893
226.439
221.552
217.947
218.877
220.134
221.051
220.309
219.958
233.298
220.038
223.055
226.141
224.399
220.642
225.295
226.046
217.985
216.995
221.121
219.937
220.578
221.781
216.372
219.57
220.658
225.409
218.839
223.094
220.643
219.644
224.816
221.465
219.673
220.796
218.394
221.499
220.87
223.088
222.125
220.391
221.476
233.426
216.86
220.233
221.921
221.604
221.616
228.31
218.523
220.549
221.318
221.449
217.279
220.768
224.493
220.076
221.151
228.73
219.8
221.369
221.936
229.547
243.993
218.914
227.065
222.05
221.705
222.312
220.684
223.329
222.245
223.122
218.172
220.968
224.105
219.904
220.593
221.331
219.023
215.52
224.025
220.683
217.953
222.218
229.717
225.887
221.013
221.241
227.796
221.194
220.387
222.921
220.755
222.696
227.682
223.249
226.233
213.71
220.734
217.72
218.005
223.185
221.197
223.873
221.485
219.237
217.668
220.932
226.736
225.328
221.538
225.322
217.638
219.801
221.927
218.98
220.751
219.512
219.737
218.361
221.544
220.035
229.636
219.687
218.208
218.697
219.351
222.801
220.344
229.032
220.37
230.422
226.247
222.16
223.22
226.639
221.106
224.106
221.536
225.8
227.217
222.043
221.304
221.045
218.749
225.511
222.908
231.793
218.821
221.4
219.412
218.351
229.202
220.92
220.88
224.038
220.37
220.48
218.796
220.073
221.497
227.317
221.933
222.019
224.297
227.226
223.473
221.74
219.223
221.256
232.157
221.176
220.878
213.483
220.884
217.063
217.215
220.525
221.121
226.421
217.856
224.352
223.391
223.619
221.299
224.882
224.373
220.572
225.118
224.387
220.408
221.826
221.483
220.865
221.269
223.22
219.635
216.264
221.697
226.969
226.071
220.872
220.244
218.27
224.536
220.745
222.455
219.866
224.776
220.983
216.531
229.14
218.378
227.088
220.738
222.407
220.537
221.472
240.684
222.746
214.067
220.407
222.237
229.378
219.545
218.526
220.959
220.929
217.601
227.742
219.92
221.412
221.728
221
225.231
221.664
223.143
221.665
219.077
221.321
222.93
235.699
221.432
221.541
225.159
220.691
221.443
221.022
227.707
221.421
216.425
218.422
220.625
220.773
221.713
224.621
220.599
220.261
225.37
226.321
225.028
221.768
220.408
219.47
219.821
220.427
220.225
221.637
221.457
224.587
220.324
223.109
231.542
220.839
223.619
220.236
221.406
221.841
221.018
220.943
223.337
220.316
217.341
220.735
220.172
220.348
218.926
218.866
219.144
220.881
223.659
221.313
220.719
224.228
222.184
221.326
227.785
218.133
226.171
223.792
217.588
221.508
236.495
221.437
234.427
221.386
222.064
223.501
222.544
229.07
219.928
223.528
224.409
221.723
219.139
224.495
221.833
222.266
223.879
224.948
239.344
221.185
216.788
219.12
219.72
221.425
216.698
223.059
219.967
220.781
232.217
232.969
221.322
219.631
218.315
227.141
219.999
222.914
219.74
219.311
238.642
226.018
215.253
218.346
232.029
220.554
220.057
220.965
226.556
220.62
225.893
229.077
225.925
221.642
236.1
222.652
218.969
218.862
218.917
231.064
221.513
224.807
219.967
216.829
229.988
219.312
229.425
221.398
221.465
222.236
231.677
227.089
225.483
219.877
219.385
220.512
221.169
223.418
219.501
225.736
225.192
219.903
220.99
221.311
227.078
220.529
222.853
221.305
233.433
222.996
219.155
223.883
222.03
222.292
219.654
221.084
220.108
221.453
217.968
228.7
219.834
221.023
224.9
223.103
225.418
224.876
216.193
220.859
216.595
215.802
221.662
218.535
220.545
223.484
225.665
215.503
219.803
220.414
225.091
221.373
220.763
221.892
223.392
218.658
225.606
223.812
221.605
221.89
224.709
238.292
221.737
221.735
222.097
220.742
221.46
221.219
235.061
220.472
225.768
220.712
220.262
228.461
224.085
219.88
219.343
220.678
232.436
221.468
219.199
223.103
221.067
221.148
224.86
221.08
231.534
221.387
224.953
219.234
221.407
217.108
222.249
226.256
220.173
232.584
232.961
224.904
218.367
224.025
221.304
233.003
219.786
221.827
220.801
239.01
221.61
221.226
228.215
221.577
221.58
220.862
217.59
222.577
222.72
218.038
224.658
221.792
224.049
221.83
228.128
214.179
222.264
219.975
224.175
224.607
222.607
221.183
218.645
222.862
220.426
224.162
228.076
221.382
219.998
218.727
220.671
220.125
220.605
221.277
219.97
222.456
227.143
221.496
223.585
221.436
238.12
221.635
221.973
224.015
220.814
221.863
229.964
224.499
220.439
227.72
228.847
221.887
221.974
221.526
222.642
217.955
218.744
237.124
219.062
223.026
223.634
221.01
221.162
220.969
223.806
221.598
232.819
222.238
220.951
219.282
220.957
219.873
230.685
223.103
223.924
219.041
224.412
219.339
224.64
227.222
220.707
219.7
221.067
220.801
221.352
230.037
220.54
224.681
221.278
221.627
229.37
221.504
223.161
230.723
221.396
220.57
220.857
218.232
222.694
221.335
221.445
221.764
224.581
216.721
219.491
221.482
221.39
228.74
227.972
221.5
219.018
217.598
218.791
224.916
225.917
220.946
230.342
219.911
221.353
222.184
215.733
219.976
225.58
221.257
221.464
213.841
222.922
229.481
214.293
220.61
224.496
221.544
221.084
225.255
227.185
227.672
221.532
220.985
221.473
229.048
221.697
220.933
221.291
221.371
220.377
220.907
223.319
227.833
221.585
221.28
220.458
219.026
219.792
222.851
221.047
224.077
221.055
220.369
224.752
233.658
220.724
218.885
220.609
227.462
224.096
220.667
225.037
219.051
221.661
224.597
227.006
227.34
221.278
220.285
217.28
221.534
220.258
222.675
219.9
222.98
224.324
221.739
235.189
221.253
220.106
237.896
231.415
220.078
221.403
220.483
221.368
219.742
225.856
223.233