# vtk DataFile Version 3.0
vtk output
ASCII
DATASET POLYDATA
POINTS 10000 float
-47.3648 -44.3226 8.83068
-43.5202 -39.5975 12.6648
-43.0711 -42.0699 11.084
-46.2567 -39.2903 14.9304
-42.8766 -40.6414 11.8426
-45.6782 -39.2874 14.296
-44.8719 -43.8816 10.0896
-43.35 -40.95 11.92
-43.2711 -40.4283 11.6443
-44.718 -43.7655 10.4429
-46.2831 -44.1895 9.71085
-44.6422 -43.761 10.479
-45.8593 -39.5506 14.3681
-43.0768 -39.1848 12.4973
-44.1445 -39.2062 13.6762
-42.7508 -40.3805 11.8637
-48.1201 -44.5972 9.27667
-44.9346 -39.1908 14.0942
-42.7091 -40.2029 11.8138
-43.1654 -39.4675 12.2188
-53.0105 -44.3338 7.62822
-45.6034 -39.4856 14.3132
-43.9159 -39.4586 12.8819
-47.7628 -44.5299 8.85216
-44.8478 -43.868 10.4429
-46.2879 -44.1841 8.91311
-50.0932 -44.8379 8.46318
-47.0272 -39.6447 15.4445
-45.014 -43.6686 10.1742
-43.3401 -39.6067 12.9185
-50.2578 -44.415 7.89524
-42.7072 -40.5026 11.6838
-46.108 -44.0783 9.97671
-45.0245 -43.9163 10.2065
-42.3406 -39.54 11.4643
-43.8377 -39.5583 12.9849
-44.0536 -43.4054 10.4598
-43.3201 -40.3964 12.5493
-42.717 -40.6637 11.9114
-44.0763 -40.2098 13.01
-51.9284 -44.9768 8.36289
-47.9194 -44.2573 8.7975
-43.1901 -40.4368 12.1607
-43.7786 -41.4147 11.9925
-42.7933 -41.2805 11.5508
-42.7697 -41.7128 11.2824
-43.1117 -41.6887 11.3638
-43.1834 -41.5868 11.3509
-42.6403 -39.1096 12.1257
-49.1352 -44.5349 8.00765
-43.1611 -39.4679 12.7999
-45.569 -44.0306 10.6865
-44.9039 -43.6818 10.5109
-46.8466 -44.5431 9.04074
-43.6724 -39.506 13.0873
-49.6876 -44.844 9.66525
-44.4834 -39.1056 13.7646
-46.1809 -44.0732 8.66275
-46.7927 -44.5022 10.233
-42.7507 -40.1664 11.8028
-44.146 -43.5562 10.5044
-45.5481 -43.8378 10.6008
-44.2169 -43.4233 9.31222
-43.2096 -42.0904 11.1459
-45.4315 -43.8945 10.5514
-45.2333 -44.1007 9.56535
-47.3989 -39.6339 15.6584
-43.5558 -42.4785 11.1069
-51.2043 -38.7897 17.8778
-46.4808 -39.6739 14.6722
-44.4002 -39.6236 13.5786
-48.7593 -44.6549 9.25065
-43.7767 -39.8884 13.0812
-49.3845 -44.8446 9.51565
-46.4893 -39.4766 14.7309
-50.7633 -44.9246 7.79222
-42.6359 -40.18 11.9662
-47.8076 -43.4831 7.87539
-43.3633 -40.3921 12.1744
-53.2133 -44.2194 7.35501
-49.1084 -44.6887 8.75592
-50.5981 -44.2849 7.46689
-44.1793 -43.3975 10.619
-43.8308 -39.9084 13.0826
-42.7069 -40.067 11.6957
-44.5564 -38.9694 13.8163
-44.3674 -43.6504 10.5464
-43.0124 -41.6569 11.225
-51.4928 -44.6906 8.77324
-45.2475 -39.4888 14.0186
-46.0493 -43.677 8.76905
-45.8284 -43.983 10.3838
-42.9716 -39.9458 12.3508
-53.8902 -38.6242 19.198
-47.5414 -44.5644 9.86758
-42.9224 -42.2097 10.7189
-48.9547 -44.3936 8.02001
-52.9827 -44.902 8.48017
-42.6086 -39.976 11.3797
-47.4586 -44.3044 8.37116
-45.1549 -44.3511 9.92323
-45.8266 -44.442 9.78397
-47.0381 -44.4633 8.93946
-43.1225 -40.2597 12.0539
-49.5958 -45.278 9.21725
-48.5744 -44.9591 9.47566
-44.0589 -39.6059 13.3999
-42.9261 -40.8425 11.7006
-43.9957 -40.7676 12.3241
-43.3398 -39.3062 12.9158
-44.0496 -43.4609 10.5965
-43.2036 -39.7826 12.2526
-42.8122 -38.8594 12.5871
-43.6989 -40.4761 12.437
-44.3318 -43.4004 10.7937
-42.7597 -41.2238 11.5668
-47.7764 -44.6948 8.68394
-42.9474 -42.2444 10.9716
-43.5319 -43.5229 9.68581
-42.7546 -41.8373 10.7274
-44.2093 -38.7617 13.6733
-48.1468 -39.9317 15.6936
-43.0895 -41.8438 11.1605
-43.2882 -39.9769 12.1849
-43.8983 -43.2918 10.4899
-52.8446 -44.749 8.42315
-42.8822 -40.8863 11.7815
-45.3967 -39.482 14.0663
-45.027 -43.3725 10.1731
-44.6662 -43.3344 10.6281
-42.6181 -41.3811 11.0728
-52.9942 -45.0246 7.83434
-46.6519 -44.1177 9.84398
-43.0995 -40.6494 12.0303
-43.081 -41.1612 11.3993
-49.8578 -44.9684 8.86831
-43.5329 -42.8826 10.8976
-42.9773 -40.2674 11.8006
-42.8748 -39.8352 12.0988
-44.4721 -43.7314 9.98379
-43.0689 -42.0297 11.3198
-55.0528 -44.019 7.43235
-44.0037 -39.4755 13.1807
-48.3416 -39.3864 16.9027
-43.6841 -42.5582 10.8614
-46.1243 -39.5093 14.524
-45.0848 -43.8503 9.71753
-49.5559 -45.0772 8.56066
-45.1924 -43.9259 8.84676
-46.8426 -44.6453 9.07935
-43.578 -39.4607 12.8625
-52.2691 -44.3983 7.55464
-53.9288 -43.7298 6.62108
-47.1488 -39.5734 15.3966
-42.6796 -39.5122 11.9007
-42.6817 -41.154 11.1502
-46.2829 -43.5579 8.38447
-43.164 -42.0187 11.0734
-43.4955 -42.2253 11.1385
-42.8178 -39.5053 11.9379
-44.4492 -43.5386 9.85291
-43.2267 -40.9097 12.1902
-50.0896 -44.4952 8.17963
-44.2307 -40.5052 12.4947
-45.3909 -39.5539 14.0579
-46.8099 -39.8304 15.1227
-45.4139 -43.969 9.90045
-46.3002 -44.5327 8.99481
-43.9125 -42.4041 11.6177
-51.2786 -44.8253 8.71428
-42.771 -41.6193 10.7048
-45.4378 -44.7484 10.053
-47.477 -39.8058 15.7842
-48.8502 -39.5681 16.8455
-43.6038 -42.5816 11.2404
-43.7207 -40.6933 12.2802
-43.8299 -43.6918 9.761
-43.4439 -42.4231 10.899
-42.8649 -42.59 10.5077
-46.1998 -44.2981 10.0218
-43.037 -42.077 11.1927
-42.7028 -41.8343 10.5577
-45.5076 -44.1375 9.99993
-45.0088 -43.8309 9.52914
-43.7183 -42.5283 10.9465
-43.1949 -39.904 12.2899
-44.0099 -43.1992 10.6335
-42.8055 -39.7053 11.9822
-43.466 -39.0658 13.1494
-43.9392 -42.6872 10.8114
-42.2598 -41.6929 10.7607
-43.0386 -40.958 11.616
-43.652 -42.2194 11.2092
-42.894 -39.5421 12.3049
-48.1784 -39.7031 16.2772
-43.8429 -42.2225 11.2431
-55.8659 -44.3972 6.69212
-45.4147 -39.3784 14.1279
-43.6553 -40.5212 12.3668
-44.4867 -43.3851 10.7116
-45.3738 -44.1283 9.91985
-43.2643 -40.5116 12.5706
-48.2936 -44.5657 8.8214
-49.9827 -44.611 7.66795
-43.1605 -39.0185 12.3742
-42.44 -40.038 11.7998
-44.6808 -43.9445 9.64003
-44.4757 -43.42 10.3752
-45.1092 -43.7562 10.1911
-48.6684 -39.5946 16.3241
-45.7849 -43.4584 8.39612
-53.1736 -44.5877 7.66928
-43.8387 -43.3751 9.9799
-44.1128 -43.6482 10.1888
-44.8911 -44.4934 9.45194
-51.9914 -44.8165 8.99841
-42.4944 -41.8549 10.4811
-43.328 -42.1428 10.9147
-43.6633 -42.0116 11.854
-51.7454 -45.0522 8.64698
-42.9973 -39.9044 12.1621
-42.2447 -39.4928 11.7674
-49.2402 -44.9838 9.34126
-42.9188 -41.7763 11.5002
-42.8075 -41.4222 11.3339
-44.5265 -43.7849 9.84199
-49.351 -44.5527 7.98433
-46.6038 -44.3179 10.1174
-44.0219 -43.1897 10.499
-42.6252 -41.134 11.324
-43.8167 -39.3284 13.1038
-42.9775 -41.9644 11.1034
-44.2014 -43.3664 10.8449
-48.7236 -45.1146 9.50303
-44.0793 -43.6972 10.2288
-47.8912 -44.6806 9.21615
-45.1689 -43.8082 10.6028
-43.4505 -40.2288 12.8398
-44.1378 -43.8031 10.1393
-48.1898 -44.7144 9.73036
-43.3555 -41.2254 11.7843
-42.9737 -41.3723 11.5744
-50.7288 -44.6512 9.49341
-43.3734 -39.2925 12.6042
-42.7682 -41.2206 11.5384
-50.4233 -44.4977 7.38795
-46.1995 -44.1257 9.96771
-42.9922 -41.2482 11.4658
-45.7485 -43.4682 8.50073
-44.2034 -43.4815 10.3506
-44.7479 -43.211 11.3203
-47.1407 -44.6936 8.65398
-44.1568 -42.7029 11.5098
-43.6051 -40.6007 11.8762
-50.9912 -44.9754 8.09372
-50.7536 -44.054 7.7425
-43.635 -42.8413 10.4135
-44.323 -39.3594 13.6934
-47.9595 -39.8441 16.017
-47.3641 -44.9202 9.48904
-46.6341 -44.6684 10.0924
-44.4073 -43.0506 10.6432
-52.891 -44.5042 7.87993
-44.8391 -39.4201 13.8709
-43.4312 -40.6787 11.3809
-44.5357 -43.5441 10.6893
-49.8259 -44.6233 8.39432
-43.6856 -39.6649 12.5564
-54.5476 -44.905 7.44359
-45.9812 -44.193 9.46017
-46.2192 -43.7149 8.69408
-44.7534 -39.0945 13.6063
-43.469 -43.2415 10.1978
-43.9692 -39.2121 13.121
-43.9597 -39.7658 12.9382
-43.0339 -42.7727 10.5274
-48.9346 -44.9623 9.67946
-42.9 -39.989 11.9939
-53.5758 -44.2932 7.30016
-46.4286 -44.3675 10.2939
-43.696 -42.941 10.8
-44.8122 -43.8713 9.80828
-47.4367 -44.7945 8.5713
-52.1316 -38.6331 18.3778
-44.0775 -42.7006 10.7626
-42.6087 -41.1316 11.4787
-45.6412 -39.0337 14.1293
-42.5358 -39.6934 11.7981
-48.5655 -44.5397 9.26461
-42.8244 -40.5139 11.451
-43.2826 -42.3974 10.9512
-45.3979 -43.6963 10.1679
-42.8656 -39.7235 12.0179
-44.6145 -38.8422 14.0568
-43.6166 -42.7327 10.7725
-50.9177 -44.8016 8.53198
-46.6118 -44.293 10.1713
-48.2474 -44.6739 8.73359
-44.3687 -43.4278 10.3396
-42.8128 -40.5428 11.6366
-51.9019 -44.1999 7.37453
-43.8798 -38.9527 13.0858
-42.931 -39.8229 12.2238
-46.7404 -39.6113 15.0722
-43.876 -39.8929 12.784
-44.9118 -38.9569 14.0643
-42.1572 -38.7697 11.5566
-45.5951 -44.26 10.3115
-43.3886 -39.9295 12.4295
-53.1268 -45.4443 8.41828
-51.2646 -44.4507 7.69505
-45.0462 -39.0469 14.2803
-44.7156 -39.7056 13.7054
-43.4297 -41.7497 11.5224
-44.8455 -43.101 11.0164
-43.2107 -40.7529 11.6493
-42.7254 -39.1727 12.3535
-43.8852 -38.3474 13.2432
-44.1739 -43.5632 9.6865
-45.9339 -43.8724 10.3219
-43.8167 -43.3907 9.80506
-43.3659 -39.511 12.7781
-42.7831 -40.2384 12.03
-45.8354 -39.4342 14.2725
-46.6233 -44.1835 10.0088
-45.0495 -43.4729 10.8655
-51.2722 -44.8407 8.60786
-42.9008 -42.0905 10.9919
-48.1959 -44.4207 8.76005
-54.7426 -42.9953 6.0538
-49.7838 -39.033 17.3982
-46.3862 -39.5614 14.7133
-42.8289 -40.8631 11.8897
-47.3586 -44.2133 8.72158
-43.9034 -43.0128 10.9088
-48.768 -44.9357 9.67063
-44.4686 -39.211 13.5526
-46.4963 -44.1402 10.4436
-54.2237 -45.1258 8.68002
-43.4706 -41.501 11.946
-45.1161 -43.7025 10.5679
-47.8766 -44.8783 9.45953
-43.5729 -39.1207 12.8527
-44.5236 -43.5593 10.3769
-44.3323 -38.9745 13.7634
-46.1356 -44.7866 10.0305
-48.5852 -39.6984 16.148
-45.2118 -39.2453 14.2796
-43.6525 -38.7627 13.2384
-44.4611 -43.668 10.3968
-44.6967 -43.7976 9.92486
-45.0896 -43.412 10.6606
-50.9183 -44.3221 7.85194
-43.1963 -41.2589 11.6509
-43.2097 -39.2359 12.7203
-45.4093 -43.7881 10.2405
-45.4768 -43.9644 9.92082
-46.6629 -44.3519 10.0794
-45.1191 -43.8225 10.4633
-47.6554 -44.5051 9.53231
-43.6426 -42.9944 10.561
-49.0072 -35.382 26.7801
-43.813 -43.0403 10.5223
-46.9885 -39.498 15.853
-54.4184 -45.0385 7.63609
-46.5518 -44.314 9.4184
-47.467 -39.842 15.8467
-43.0954 -41.7583 11.6428
-47.5191 -44.3137 9.60252
-45.3231 -39.3859 14.4304
-42.4458 -41.0524 10.8531
-43.4975 -40.3358 12.7323
-45.5265 -44.0335 9.49802
-43.0614 -40.5767 12.0101
-51.5754 -44.6139 9.37926
-50.0952 -39.0049 17.5952
-45.5004 -43.8625 10.3222
-43.8161 -39.3405 13.1437
-46.7029 -39.5523 15.1581
-43.2239 -38.2543 12.9704
-42.7199 -39.6043 12.0546
-48.2952 -44.3983 9.11193
-47.423 -39.8538 15.302
-45.4385 -44.2279 9.7491
-52.1865 -38.5109 18.3797
-45.7109 -38.9276 14.4688
[...]
POINT_DATA 10000
SCALARS t float 1
LOOKUP_TABLE default
219.423
213.658
210.295
214.65
211.9
214.435
211.935
212.03
211.518
211.04
213.877
210.929
214.519
213.425
214.399
212.005
216.35
214.484
211.918
212.853
228.008
214.535
213.821
219.213
211.064
218.988
221.745
214.597
211.779
214.031
226.259
211.605
212.367
211.668
211.64
213.961
210.851
213.54
212.092
214.05
222.189
219.633
212.67
212.172
211.254
210.716
210.879
210.878
212.817
225.382
213.929
210.717
210.946
217.958
214.101
214.421
214.314
220.872
211.772
211.891
210.738
210.919
216.658
210.422
210.979
214.817
214.57
210.336
213.382
214.608
214.354
216.504
214.136
215.129
214.59
226.674
212.314
227.035
212.679
230.281
219.801
229.737
210.471
214.128
211.718
214.293
210.687
210.641
219.573
214.406
220.225
211.413
213.157
212.962
213.035
210.155
225.373
221.282
211.352
222.819
212.595
213.424
218.657
212.439
216.623
215.261
214.308
211.554
212.951
213.986
210.48
212.899
213.646
213.23
210.086
211.29
220.387
210.02
214.106
210.23
214.23
214.655
210.489
212.73
210.747
221.744
211.706
214.395
211.828
210.626
210.432
225.952
213.125
212.354
211.034
218.945
209.845
211.843
212.619
212.248
210.736
229.382
214.091
213.823
209.874
214.551
213.917
221.037
219.724
217.682
213.878
228.687
236.658
214.559
212.261
210.637
223.142
210.296
210.422
212.316
213.082
212.726
223.991
213.284
214.414
214.673
212.798
218.341
211.317
219.929
210.374
211.967
214.611
213.974
210.587
212.879
213.604
209.921
210.64
212.146
210.492
210.712
212.194
215.106
210.054
212.98
210.41
212.383
214.152
210.003
210.138
211.406
210.574
213.084
214.346
210.659
234.839
214.409
213.08
210.352
212.657
213.607
219.398
227.953
213.172
211.964
214.382
211.185
211.741
214.343
223.2
227.478
212.243
211.568
215.489
218.085
210.913
209.993
211.805
220.256
212.735
212.054
216.019
211.088
210.873
213.125
225.543
211.985
210.771
210.928
214.043
210.345
209.911
215.102
211.445
216.701
210.801
213.992
211.692
213.854
211.648
211.275
215.434
213.552
211.246
230.182
212.414
211.122
222.415
211.168
211.044
220.651
211.175
211.919
224.294
227.675
210.975
214.39
214.549
215.12
212.007
210.527
225.93
214.39
211.094
210.408
222.345
213.423
228.715
215.394
220.743
214.088
211.489
213.991
213.919
210.56
214.227
212.359
230.598
211.62
209.921
213.342
221.206
213.008
210.164
211.177
214.221
212.015
216.426
211.269
210
211.85
212.451
214.467
210.012
221.193
211.886
220.006
211.247
211.523
230.386
213.935
212.889
214.624
213.794
214.395
212.048
211.476
213.239
221.5
227.708
214.568
214.383
211.149
210.503
211.477
213.238
213.942
214.126
211.573
213.362
213.847
212.432
214.411
212.211
210.285
220.631
210.093
219.863
241.762
213.62
214.633
212
220.239
209.959
214.247
214.183
211.382
219.86
212.066
210.878
215.308
213.82
211.175
214.325
212.071
214.492
214.568
214.112
211.094
212.626
210.697
226.584
211.404
213.793
211.673
212.682
212.062
211.099
214.892
210.54
217.549
210.679
214.594
227.182
215.577
214.621
211.337
214.493
214.697
210.162
213.864
215.23
212.313
216.069
213.528
211.498
214.085
214.618
213.939
212.578
217.394
214.608
213.661
212.943
214.464
213.424
212.191
209.946
211.595
213.873
212.92
210.335
213.845
211.215
212.843
214.76
213.415
213.536
211.75
213.918
212.755
221.407
210.397
231.563
214.108
220.131
227.651
210.616
213.699
211.109
210.965
227.917
213.872
210.037
211.817
210.445
211.317
213.991
211.557
215.743
210.419
214.55
214.555
227.841
211.915
215.913
211.508
220.501
211.715
211.804
219.599
210.128
210.753
210.875
214.479
211.457
217.446
211.893
211.934
214.249
210.201
221.32
211.014
210.441
211.503
211.9
211.941
217.993
210.829
211.426
209.99
213.942
211.278
224.549
211.743
210.723
213.278
214.352
211.815
223.798
222.578
213.768
218.951
223.324
218.834
210.238
211.793
214.505
214.687
213.672
211.754
210.046
210.097
209.948
214.991
210.034
211.184
211.936
225.951
212.161
210.793
214.277
210.324
211.92
225.786
224.796
210.79
214.365
210.854
221.347
211.445
213.398
214.662
228.352
214.155
211.79
218.286
212.725
216.797
229.051
213.988
209.885
212.125
213.367
210.927
210.936
212.832
214.214
214.517
211.566
234.705
210.947
217.402
221.573
218.532
209.922
210.104
214.663
212.288
212.217
211.45
216.419
214.727
219.688
213.742
214.672
212.962
227.206
211.305
214.153
211.846
213.068
227.083
214.097
213.713
237.38
216.661
218.439
222.367
227.143
211.252
212.313
213.773
212.154
213.847
210.459
209.907
214.228
209.953
221.836
217.965
224.223
213.091
227.498
214.745
214.443
216.922
212.914
213.249
211.799
213.114
210.924
211.803
213.465
214.047
210.679
215.287
214.718
210.979
211.34
219.62
209.751
210.434
213.047
214.428
214.19
210.659
210.093
213.683
217.904
214.392
212.822
212.309
212.564
217.42
235.803
209.812
214.203
215.606
213.929
214.476
210.763
214.141
213.624
210.555
211.536
227.397
232.113
212.764
226.698
210.822
210.093
211.117
211.123
212.593
210.244
216.032
211.903
210.806
213.039
214.525
212.195
211.064
210.756
213.003
213.888
215.624
212.067
211.02
211.146
213.994
210.241
211.029
211.956
213.971
210.722
212.292
225.353
227.714
224.825
210.831
210.445
211.736
214.341
217.465
210.007
220.888
214.183
210.561
213.471
210.273
210.91
213.851
213.474
210.578
211.848
213.177
212.322
214.732
212.507
212.714
222.703
210.501
219.665
212.26
214.025
225.011
211.374
217.273
214.452
212.153
232.374
209.922
211.109
210.879
214.125
210.338
214.376
213.799
211.739
213.672
211.056
211.588
214.588
212.691
214.674
212.574
212.456
212.274
213.337
214.583
219.709
211.665
211.316
218.322
213.693
214.62
225.293
218.19
213.412
210.833
213.841
232.617
211.123
210.497
210.636
211.796
234.574
210.987
211.509
213.333
212.211
210.71
213.126
221.532
211.231
214.229
212.647
227.831
228.782
212.409
216.482
214.437
224.075
215.154
213.987
210.216
214.311
211.414
211.864
211.827
213.907
212.946
210.466
212.525
220.386
212.067
212.032
212.608
210.621
210.881
213.249
216.595
221.072
209.918
211.432
215.456
212.886
210.163
216.291
223.799
223.773
216.595
211.542
211.137
210.005
211.223
213.969
213.014
210.921
214.681
213.781
211.691
213.487
217.31
211.216
214.32
211.259
210.169
220.07
219.893
223.282
210.509
227.615
224.941
211.941
213.574
210.341
212.088
211.982
210.879
212.405
213.543
211.811
213.146
221.46
215.993
211.402
210.611
232.252
210.684
210.738
211.293
210.955
221.402
216.268
211.646
211.1
210.92
211.096
210.799
221.029
210.344
210.583
219.619
210.927
213.538
219.151
211.359
212.595
217.24
210.864
212.875
214.516
210.811
210.696
214.307
210.135
211.018
211.216
214.005
213.666
213.297
214.675
221.295
228.059
221.895
224.391
223.137
226.891
212.182
229.354
213.229
215.304
215.001
213.748
210.366
209.909
211.87
232.648
212.227
210.25
213.888
220.848
217.039
212.298
211.134
211.041
214.334
232.044
211.358
221.907
212.522
210.515
210.351
213.395
226.017
210.368
213.051
210.847
212.22
216.525
212.147
210.931
213.031
210.821
214.455
210.473
210.326
222.135
220.427
212.412
213.729
210.151
214.455
211.139
209.966
211.469
226.52
211.145
213.509
212.154
213.284
212.295
213.126
210.931
214.341
212.928
217.849
214.604
221.67
220.595
210.531
211.589
214.468
214.222
211.844
211.814
211.682
231.901
212.892
213.169
211.11
212.299
214.798
212.64
211.078
219.229
211.08
211.044
211.536
213.206
213.085
211.387
211.538
214.201
210.082
213.246
211.689
213.575
211.938
211.789
210.385
213.018
214.76
214.528
213.486
214.591
211.168
210.458
213.471
235.017
214.993
211.745
210.526
210.588
211.586
214.705
214.489
210.561
212.697
214.644
220.73
212.15
231.132
214.435
213.747
211.983
224.362
214.737
226.285
212.724
211.036
211.491
210.931
212.297
212.381
210.283
210.044
213.697
210.148
212.179
210.975
223.75
229.12
211.185
229.627
213.538
213.208
215.419
211.202
212.35
210.254
224.157
214.43
211.332
213.55
213.226
212.791
217.032
212.858
237.654
212.376
211.101
216.912
210.51
214.004
217.173
214.508
214.16
214.403
212.377
214.06
213.805
213.886
209.945
210.28
217.655
214.144
214.198
213.856
212.186
222.155
212.354
210.209
211.26
211.022
213.968
210.404
214.417
214.637
212.068
214.013
232.076
210.302
210.409
215.148
213.331
214.8
211.673
210.798
222.798
226.661
219.958
211.698
212.799
213.522
213.516
217.967
211.602
212.028
214.274
210.625
219.646
212.945
210.313
213.49
214.57
210.917
227.266
212.712
210.457
210.311
216.277
223.171
214.726
212.494
212.806
229.611
210.152
243.941
227.02
219.837
211.98
220.304
213.478
210.65
219.823
211.469
214.314
212.615
211.444
211.987
215.046
216.006
213.3
211.505
222.921
210.528
210.743
209.874
221.651
211.027
211.911
209.988
212.923
212.285
213.002
211.196
217.748
211.869
218.778
213.74
214.672
211.709
229.057
212.292
220.561
211.821
210.01
209.959
211.893
211.668
221.134
211.669
211.234
210.691
213.567
210.326
225.281
218.58
211.356
220.791
229.391
214.012
221.228
217.686
214.334
212.115
210.702
211.971
222.425
214.424
223.996
214.258
218.762
234.545
211.55
241.611
213.827
210.752
216.484
221.979
211.037
212.288
214.895
212.053
240.671
213.999
213.564
210.456
212.848
211.964
217.149
211.36
219.083
212.836
211.818
214.265
211.344
213.903
213.914
214.4
212.912
227.467
235.513
212.836
210.601
210.626
215.77
214.116
211.068
213.08
232.955
210.423
214.275
211.637
210.13
213.654
210.087
214.33
212.153
214.182
210.595
213.736
216.094
210.283
213.514
212.219
235.143
220.537
211.556
215.618
222.371
211.119
218.13
214.889
212.231
214.631
216.636
210.421
221.198
218.985
218.885
216.072
215.295
210.119
216.7
221.281
218.045
213.852
213.967
213.114
213.395
211.142
213.708
212.738
223.466
210.023
212.83
210.32
233.78
213.283
214.64
211.87
215.912
211.806
230.505
211.554
210.817
213.598
211.287
210.455
220.732
214.299
212.709
213.55
213.591
211.499
213.797
233.443
211.417
214.622
227.623
212.524
209.876
214.443
213.833
209.849
211.574
214.41
222.714
215.189
214.588
212.325
214.016
211.705
230.277
225.395
210.555
214.038
210.51
213.436
226.763
214.508
211.495
210.148
229.458
213.549
214.039
216.321
220.563
210.867
229.341
211.014
210.26
211.125
219.99
210.465
216.694
213.365
210.866
214.471
213.439
214.159
214.922
212.651
213.786
214.497
214.461
212.189
222.031
212.436
211.662
210.476
214.388
209.859
211.272
212.849
214.03
230.625
209.995
213.68
212.001
212.088
229.016
214.158
210.134
211.808
214.642
211.04
213.619
212.088
214.59
209.967
212.801
211.661
212.74
219.635
216.545
214.464
212.085
216.891
218.24
213.551
225.1
214.295
214.096
213.817
211.519
211.285
211.206
217.283
210.759
211.154
212.981
217.899
213.688
232.357
212.965
213.992
220.704
214.397
211.05
211.145
212.515
213.085
213.082
215.965
210.84
211.158
214.562
210.228
222.15
219.291
232.42
215.633
210.598
211.895
211.077
214.142
210.902
210.352
214.378
218.419
213.313
222.955
212.478
210.281
210.996
210.506
210.629
212.126
211.419
211.713
210.182
213.419
214.132
211.181
214.722
210.002
213.486
211.652
214.191
210.029
212.591
209.953
212.314
211.14
213.361
216.294
211.83
211.898
220.746
211.588
211.887
214.462
221.769
210.937
210.773
212.495
214.434
210.575
211.295
218.165
211.662
214.099
214.097
210.302
211.055
211.389
211.297
212.768
214.485
211.761
231.592
214.696
211.199
214.424
210.707
227.964
211.299
212.057
211.576
219.833
227.704
211.369
211.532
210.691
210.956
212.135
210.2
218.617
226.425
213.934
210.833
233.097
229.749
211.807
211.358
212.088
218.444
212.428
216.884
211.328
223.84
213.125
223.048
214.712
212.855
213.005
230.21
213.691
210.258
211.787
210.813
214.393
214.419
219.24
210.33
212.562
211.201
211.435
210.474
215.25
212.026
210.951
214.579
210.589
210.54
213.914
211.764
211.331
213.621
212.951
211.633
214.585
210.595
216.139
209.869
213.988
212.571
222.245
221.458
214.267
214.156
219.233
211.416
220.685
211.189
223.961
213.065
213.332
214.735
217.181
214.053
211.465
219.019
214.432
211.585
219.595
209.826
214.491
210.433
219.342
213.48
220.39
213.238
213.567
229.734
212.765
212.536
212.712
214.602
210.335
211.884
211.841
214.442
211.558
210.208
210.868
214.066
218.137
213.833
218.563
211.404
235.636
209.994
214.166
211.449
212.196
220.113
225.178
212.538
213.273
210.167
222.404
218.831
210.982
214.049
210.232
210.614
216.755
227.078
214.244
214.161
214.755
212.677
211.107
223.738
212.197
214.679
211.267
216.623
210.88
213.349
210.604
219.571
213.111
216.412
210.7
212.202
210.696
211.248
216.621
211.424
221.735
221.712
211.049
211.65
211.708
228.978
215.064
210.588
211.655
212.822
212.031
211.278
213.041
214.006
221.69
211.592
211.74
212.21
209.878
215.646
220.66
212.04
211.015
211.057
212.916
210.123
214.47
219.03
210.005
212.12
220.093
211.252
211.345
212.862
214.579
211.783
215.214
214.686
231.102
211.566
211.221
214.28
211.419
212.688
211.95
216.202
212.97
215.536
212.399
235.202
214.081
213.751
218.175
227.395
214.024
227.829
211.753
213.589
223.801
211.479
214.588
214.691
210.297
213.887
210.91
210.647
212.947
210.331
212.661
210.962
211.906
211.594
215.427
212.068
225.116
212.649
217.273
210.384
213.23
212.741
212.077
218.832
214.243
210.526
210.242
218.757
218.957
222.077
213.998
213.064
228.819
211.449
210.687
211.434
214.439
213.538
211.756
212.86
210.381
210.188
211.394
214.624
214.45
214.428
221.848
210.739
211.777
213.94
212.648
219.539
210.657
211.848
212.557
210.493
215.603
211.117
211.792
211.61
231.747
213.803
214.471
210.686
211.107
213.883
217.933
211.719
214.097
210.417
219.874
213.744
211.521
212.536
209.989
211.273
213.839
226.909
211.909
214.297
213.287
216.267
211.921
212.366
210.235
219.753
216.263
217.793
211
209.904
212.808
210.517
210.182
210.236
218.262
214.902
213.428
222.469
214.917
214.544
217.033
212.016
210.82
216.061
215.267
211.39
228.32
227.609
221.39
214.313
214.461
210.686
210.336
213.284
211.312
210.803
211.649
213.811
213.779
209.954
212.399
213.14
220.02
210.749
213.836
216.776
209.867
221.457
212.907
211.942
210.922
215.518
213.83
220.738
212.238
211.946
212.011
226.675
211.13
211.492
210.309
209.952
210.956
211.618
216.771
211.19
213.873
226.515
224.393
212.142
212.189
210.996
214.479
226.616
217.779
215.771
210.563
214.601
211.322
211.431
213.694
214.001
210.404
214.013
210.648
211.03
213.424
210.664
213.923
215.094
214.212
213.488
213.99
210.793
223.833
212.366
213.046
217.986
213.914
212.707
214.782
211.163
221.151
232.214
210.887
214.547
213.854
227.133
210.911
212.191
210.522
210.424
223.536
211.03
215.122
212.006
214.402
232.172
216.036
226.439
213.531
214.671
213.335
214.684
217.604
212.026
211.023
222.703
213.468
214.194
212.546
228.089
223.256
212.422
226.339
228.373
211.209
215.751
213.301
213.838
218.262
211.875
216.048
210.985
211.22
210.542
210.647
211.955
211.51
215.316
212.414
210.98
233.376
213.301
214.161
211.054
218.552
219.23
211.065
216.098
215.985
214.588
212.669
216.004
210.263
209.901
218.387
211.352
211.287
210.652
214.23
216.269
214.647
210.633
215.044
214.256
214.493
213.566
210.068
211.349
212.303
217.239
210.337
221.72
213.159
213.854
216.758
216.636
214.593
214.269
211.151
218.465
211.39
210.508
218.773
215.641
211.236
210.559
209.934
209.926
210.995
212.545
212.11
214.268
213.391
209.896
211.768
214.019
214.201
211.281
210.741
213.332
211.61
218.617
210.73
211.624
229.237
210.287
210.898
211.851
217.431
212.901
210.781
210.539
213.863
210.088
211.324
225.418
214.644
214.372
228.736
219.77
213.54
222.138
214.74
212.121
212.645
210.771
214.625
211.399
211.746
211.841
211.009
217.148
214.71
213.093
213.642
217.889
217.532
209.753
218.613
210.545
211.711
217.885
211.818
212.837
210.742
212.112
210.058
213.084
211.008
211.792
210.66
214.254
212.895
211.484
210.494
209.961
210.821
215.879
227.473
230.221
211.763
210.177
230.467
224.489
212.933
226.657
211.64
221.826
221.051
219.427
220.363
212.994
212.442
211.833
214.587
212.141
210.822
232.588
213.21
214.991
214.573
211.833
216.323
212.125
210.669
213.87
214.587
216.429
210.209
210.041
210.808
210.669
211.966
210.231
210.513
214.463
219.663
214.373
217.142
214.678
214.686
210.874
212.018
223.964
212.397
224.847
230.489
222.705
222.658
220.146
211.01
211.857
213.638
211.885
216.377
209.943
213.176
212.389
210.723
210.874
225.452
221.588
212.081
210.313
214.412
214.647
224.817
212.778
209.932
215.549
212.357
211.088
216.988
210.172
221.6
214.716
219.265
213.417
220.789
218.426
211.357
209.887
212.349
211.283
223.718
211.395
212.686
214.266
210.308
213.643
216.854
214.08
210.77
211.802
211.503
229.519
229.039
229.339
214.105
210.82
212.408
209.884
213.663
213.984
211.498
232.06
213.405
209.937
222.841
210.276
210.82
216.487
213.343
231.463
211.762
210.376
212.096
214.712
210.153
211.361
214.568
211.182
212.932
213.801
211.478
211.818
210.747
216.134
214.833
212.832
212.473
211.164
222.765
211.499
214.405
211.079
210.636
223.173
214.615
216.04
214.522
210.01
214.514
213.592
211.182
212.59
212.937
214.376
236.376
213.947
212.093
217.909
214.661
211.088
211.687
219.675
212.837
213.306
228.818
220.698
211.475
210.531
226.49
211.868
212.936
217.166
210.574
210.926
213.924
228.754
213.038
213.523
211.809
215.701
212.72
212.87
210.483
212.444
210.661
211.568
212.224
212.584
212.47
216.656
210.135
210.715
220.05
211.26
210.338
214.227
212.466
211.27
212.414
211.982
212.26
212.015
213.989
213.919
210.397
210.743
210.345
219.165
211.662
212.02
218.681
212.718
210.207
220.203
211.033
213.801
214.459
213.148
222.763
211.449
212.015
213.562
241.115
210.336
227.112
211.431
212.464
221.707
210.353
214.227
210.724
232.464
214.425
213.13
214.328
212.176
213.308
221.656
218.797
212.734
219.628
214.006
212.613
214.234
211.114
214.118
210.091
222.277
209.926
213.328
219.808
214.947
210.033
218.506
214.699
214.041
211.49
211.256
210.864
216.535
221.334
223.761
213.494
210.759
216.765
213.273
210.956
214.019
211.223
211.287
211.741
211.804
211.861
211.187
221.467
211.205
213.506
213.574
211.003
212.883
211.52
212.53
211.316
212.883
217.715
214.372
211.728
212.938
214.357
212.028
223.787
219.743
214.403
213.529
210.222
210.854
211.793
211.502
215.28
209.903
211.868
214.419
214.484
210.587
227.808
212.726
211.197
212.935
217.751
216.583
214.492
211.597
216.908
210.282
214.562
212.277
213.906
211.589
210.871
214.061
210.203
214.278
211.35
222.507
213.219
227.311
213.141
214.115
215.955
213.561
210.593
210.455
213.924
213.98
214.486
213.647
211.21
219.527
210.605
212.781
214.423
210.911
211.259
210.214
213.655
225.903
213.153
212.255
215.512
217.367
213.53
209.848
213.149
211.464
213.332
212.827
216.618
212.611
210.527
216.208
211.954
215.353
221.739
214.395
212.091
211.794
215.685
210.579
218.824
230.378
212.855
210.321
213.226
211.277
238.918
212.028
215.851
210.2
212.88
210.224
210.753
212.8
212.313
230.915
215.311
228.278
214.65
210.177
215.095
225.402
214.513
211.666
215.237
228.735
213.121
210.826
217.053
210.052
213.395
211.288
210.214
210.866
212.322
214.598
212.026
211.603
222.071
209.947
221.925
213.035
210.494
211.66
211.688
223.975
210.837
210.715
214.308
211.232
209.876
214.984
215.381
212.982
214.466
214.625
211.991
211.783
212.855
212.013
211.482
220.472
220.277
213.298
211.585
214.125
217.819
213.999
210.797
216.819
218.39
212.314
217.381
212.15
211.34
230.876
219.05
213.064
213.973
213.998
223.948
218.063
211.874
221.155
214.741
211.588
231.124
214.226
210.821
211.14
223.536
209.973
218.653
211.477
210.971
214.79
219.863
211.181
214.704
214.65
211.348
214.525
212.08
211.808
216.056
219.452
214.272
221.621
214.273
211.371
210.321
214.999
212.141
210.301
210.949
213.783
217.858
210.586
211.347
220.219
214.344
212.169
211.424
214.609
209.907
211.439
211.95
213.19
211.921
214.041
209.876
211.936
211.83
218.118
218.702
214.153
214.667
214.66
210.273
211.914
211.879
211.394
211.461
214.332
212.175
212.253
210.487
211.471
211.801
210.804
211.747
213.35
210.644
218.337
213.084
214.278
211.599
213.58
211.985
219.501
216.363
213.42
210.924
218.002
212.67
217.787
213.856
212.587
210.621
212.032
214.395
213.704
214.459
212.185
211.986
210.529
211.266
215.933
214.509
210.26
213.797
219.956
212.183
210.486
212.059
221.38
209.811
211.552
211.401
216.165
210.864
210.886
210.719
209.958
213.408
216.253
224.195
211.754
210.794
210.766
211.61
210.965
211.155
226.894
222.233
219.727
219.183
210.462
224.007
213.368
211.266
221.696
227.62
210.378
213.941
212.432
210.469