# vtk DataFile Version 3.0
vtk output
ASCII
DATASET POLYDATA
POINTS 10000 float
-14.4215 -24.182 4.85741
-2.01248 -43.6167 11.9524
-4.41629 -42.7151 11.2862
-0.37305 -45.522 14.5213
-2.86628 -43.9692 12.0708
-5.53568 -37.2767 13.6289
-14.3757 -27.0773 6.90457
8.97131 -49.4013 10.1997
3.58945 -46.3414 11.6197
-13.3199 -29.7069 8.07813
-12.6304 -31.0634 7.31632
-14.4987 -29.5291 8.1584
-3.58507 -42.3326 13.9945
0.434311 -46.4483 12.2891
0.644081 -44.5717 13.0198
-6.80482 -42.8756 10.6474
11.1751 -51.9655 8.35481
-4.88652 -40.1414 13.338
0.61572 -44.8292 12.1559
3.80942 -42.4922 13.3336
7.97082 -50.3677 6.6921
-3.45639 -42.2007 14.0532
-0.39095 -44.667 12.5987
-14.8941 -26.2688 5.61628
-12.9741 -31.9751 8.76098
-14.1385 -27.3619 5.13266
-2.3171 -46.5479 6.72413
2.86372 -47.3061 15.3973
-13.6945 -28.1617 7.70982
3.59748 -45.8555 12.2925
-14.672 -30.2578 5.62298
3.80003 -45.0853 11.7618
-14.3524 -25.8781 2.74408
-15.9807 -26.0583 6.07027
-4.31336 -45.4593 10.4216
0.0845486 -43.1072 12.6233
-13.1537 -29.0077 7.65324
-2.9325 -45.6028 11.3041
2.38985 -47.2113 10.9806
-2.52308 -41.4238 13.1232
4.72082 -49.0968 6.24759
-14.2726 -30.2109 6.22716
-1.66958 -41.9114 12.6171
-7.16466 -43.0508 10.3853
-0.313347 -43.5003 12.0854
-8.57077 -41.4251 10.0004
-13.9797 -29.2513 7.93573
-9.74809 -39.9972 10.3195
4.14999 -46.2259 11.2318
-2.01233 -46.387 6.19903
2.67076 -43.821 12.5594
6.91984 -49.9363 10.5064
-14.424 -29.6611 8.29712
-14.6594 -29.7717 6.11234
-4.54194 -41.5611 12.5025
7.23851 -50.4262 9.16401
0.838294 -45.751 13.647
-13.4572 -23.4751 4.48789
-12.4871 -35.2065 9.22486
-1.10792 -44.8608 11.3491
-13.0863 -32.2129 8.70271
-14.1948 -31.8511 8.61258
-13.0281 -25.4446 6.04409
-10.6183 -37.901 9.73498
-15.5902 -24.8172 6.19223
-11.8187 -26.0021 7.20911
0.262994 -45.1556 15.6597
-12.3712 -33.3811 8.82321
-1.94769 -44.5885 17.8379
-1.68944 -43.7554 14.5357
3.00558 -47.277 13.4612
-12.8861 -30.1451 6.4732
-0.867453 -43.719 12.9277
-14.6507 -29.287 7.618
-0.925354 -44.9526 14.7772
9.22125 -51.336 6.49436
0.773228 -45.8693 10.967
-16.6028 -24.1507 3.21747
2.37517 -45.5991 11.3804
-11.1754 -37.0515 5.57425
13.9859 -52.1444 7.98531
-6.31571 -43.1124 6.06458
-14.4409 -31.3243 8.31473
-1.48123 -44.5806 12.8533
0.393077 -46.6831 11.0878
-2.40973 -41.9868 13.5232
-14.093 -29.4776 8.19773
-10.2575 -39.0497 10.3101
-7.76614 -41.8629 6.61579
0.168452 -45.5073 14.0988
-15.7351 -27.7766 5.3169
-13.6412 -28.2725 7.00863
-3.29072 -41.2581 12.3602
-7.34441 -41.8502 19.0558
-14.5665 -27.5162 7.07725
-15.2786 -26.8945 6.99622
-15.3654 -28.8993 5.42945
13.7492 -51.6682 8.14284
-4.78146 -43.6978 11.1448
-15.0972 -24.4959 3.95267
-14.4854 -29.0906 7.59567
-13.8597 -27.9624 6.94187
-15.6615 -26.3861 5.71414
-0.75495 -44.3723 11.8328
-12.8847 -33.6421 7.26996
-13.5879 -32.5331 6.61899
-3.18764 -41.6322 12.7867
-12.4484 -35.6075 9.02089
-1.94216 -43.8434 12.3998
2.20882 -44.3464 11.8834
-13.3927 -28.8335 7.35033
2.99795 -45.6674 11.968
3.53814 -45.9878 12.6996
-1.82755 -44.8633 11.7538
-13.563 -30.1612 8.09104
-2.30653 -46.0738 10.7151
3.91417 -49.2643 6.92666
-8.63024 -37.1345 10.7523
-14.6755 -25.4096 5.0601
-13.9065 -27.4465 7.42321
-2.36828 -41.903 13.5401
5.09849 -48.547 15.5742
-13.8367 -30.3191 8.28311
3.35381 -45.5427 12.6415
-14.5978 -27.4707 6.88901
9.21643 -51.4747 7.64749
3.04034 -47.5893 11.2524
-5.35056 -39.8077 13.3039
-14.5133 -26.7439 6.26953
-12.4657 -32.9009 9.01855
-8.22953 -42.1695 9.37696
7.82203 -51.1433 7.251
-15.224 -26.8456 6.94466
-1.67489 -43.2746 12.2491
-5.14277 -42.4097 11.4005
16.3761 -53.3885 8.88827
-13.2459 -33.7994 9.41604
0.765008 -45.3844 11.8999
-0.660309 -43.3041 12.2016
-13.1359 -29.1151 6.76374
-0.476672 -44.9803 10.9162
-9.90693 -38.7084 5.96665
-2.24055 -40.5017 13.2084
3.98457 -47.5488 16.5863
-12.3152 -35.6458 9.97696
-3.11427 -42.0726 14.2948
-13.6026 -26.546 6.43622
-13.7634 -29.2852 6.99741
-14.6705 -23.3096 3.9794
-14.3267 -25.4655 3.09014
3.40866 -43.2063 12.8689
7.8967 -50.5914 6.54577
0.978495 -48.5152 5.57563
1.63259 -46.389 15.3457
3.93518 -46.1147 12.2626
-11.0448 -36.1367 9.71211
-14.9289 -23.9677 3.60539
-12.3342 -34.6381 9.04944
-7.75914 -41.6556 10.4747
-2.70098 -44.7513 11.3521
-15.3363 -26.44 5.10939
-0.959717 -43.0066 12.6886
13.7647 -52.4496 7.87094
-3.1265 -43.2955 12.176
-1.22818 -44.3799 13.8604
0.76137 -46.2106 14.5786
-14.2178 -25.536 2.58898
-14.7003 -24.2207 4.70819
-7.25651 -41.7204 10.9237
-15.0547 -27.3046 5.62704
-13.2782 -30.765 8.20216
24.3776 -53.3643 10.2653
4.40806 -48.2309 15.4706
5.75119 -48.2965 16.7252
-10.845 -38.5946 10.1508
-1.42491 -44.1919 12.245
-14.913 -28.4912 6.05228
-15.199 -27.3423 6.76535
-12.6777 -29.7984 8.18095
-15.2413 -25.4414 5.55671
-13.2288 -31.4494 8.41871
-14.9361 -27.2572 5.49313
-11.9814 -29.6443 8.63956
-13.6359 -25.6988 1.33768
-11.4391 -37.2839 9.9756
-1.9004 -43.6468 12.0724
-12.4331 -31.4094 8.57194
-0.413054 -45.1478 11.3612
2.2257 -45.7043 12.0484
-11.7554 -36.095 9.61154
-11.6822 -37.0013 9.33044
-5.20477 -44.3932 10.2699
-7.26799 -43.7898 10.28
3.3235 -46.886 12.0591
6.89146 -49.2805 15.7752
-13.3203 -33.7882 9.07322
2.72372 -52.9299 7.49525
-2.50564 -42.8001 13.5014
-3.02643 -42.6045 12.6455
-13.4572 -30.1715 8.26487
-12.2142 -31.4017 7.29945
-0.732339 -43.5231 12.8928
-7.66411 -41.7882 6.48858
5.59196 -50.8389 6.07344
-0.478295 -43.0903 13.1035
1.79366 -43.4657 12.7935
-12.2537 -28.3641 7.08075
-13.7729 -27.8866 7.72948
-12.428 -28.5854 7.66191
4.02244 -48.0771 16.1119
-15.6324 -21.2695 3.1191
3.89182 -48.8632 5.80686
-14.9175 -26.0214 0.0493551
-13.7926 -29.2377 7.18121
-13.6145 -32.3903 6.9482
3.244 -49.0069 7.96884
-13.2303 -30.1676 7.92726
-11.9612 -36.3532 9.8348
-2.41701 -43.5869 12.1501
2.77031 -49.3037 6.97735
-2.5206 -44.9419 11.9598
-1.76513 -45.5798 11.2241
-10.3608 -38.7251 7.07733
-13.6817 -30.0926 7.77722
-12.8526 -34.0392 9.34725
-11.9637 -28.7144 7.8473
-16.1407 -28.4171 5.22152
-10.5432 -39.1484 8.46802
-14.1487 -31.8357 7.45748
-9.02754 -40.8447 10.521
-0.42171 -43.1588 13.0155
-13.052 -31.5428 8.43159
-12.2034 -30.3687 8.48122
3.56063 -49.5042 8.75104
-15.2479 -27.2625 6.39897
-12.9398 -28.2904 6.26015
-13.0678 -33.3968 8.90597
1.8962 -47.3646 12.0609
-13.5235 -32.8741 7.12379
-0.217466 -48.3589 8.70133
-8.41077 -41.1634 10.2377
-3.67759 -45.302 11.2147
-12.5408 -26.9906 4.04849
3.09221 -45.5233 11.9427
-2.66973 -45.7673 10.8133
7.65397 -50.258 6.14165
-14.5134 -27.2 6.54156
-7.73091 -42.6314 9.81473
-18.2561 -22.6851 3.02766
-12.2795 -31.7019 8.37564
-12.1545 -36.5047 9.72414
-14.699 -26.9003 5.13702
-6.90581 -42.438 10.8324
-2.01257 -43.2442 12.1606
10.7617 -51.3582 6.72714
-16.389 -26.119 4.40098
-15.1403 -27.4848 6.86097
-1.99017 -43.6273 13.5184
0.916424 -45.7862 15.7775
0.145416 -48.1835 8.58402
25.4007 -52.1684 10.0726
-13.7252 -30.8754 8.34873
6.076 -52.7605 7.91419
-3.81352 -41.0403 12.8907
-6.6789 -40.34 11.3505
-12.248 -31.9663 8.70215
-15.3596 -26.2052 4.95752
-4.71872 -41.758 12.8489
-3.9499 -45.6619 6.50147
-13.7484 -24.2677 5.4807
-13.8198 -22.3456 4.23007
-2.27067 -39.8136 13.3184
-13.0619 -25.7511 6.58709
-0.829284 -43.1447 12.8667
-3.77547 -39.8299 13.0052
-13.5435 -30.4112 7.64227
12.1241 -50.681 8.648
-0.616307 -42.3132 12.5381
-15.6865 -27.4642 4.76993
-11.3078 -37.1173 7.10816
-14.2397 -28.2359 7.74596
-15.8014 -26.5002 4.2482
20.6859 -52.5562 8.83589
-3.05913 -43.397 18.2458
-12.9058 -32.742 8.39618
-3.11879 -45.4111 10.625
-4.03752 -42.1122 13.3027
-2.56516 -44.3183 11.3674
-14.6114 -24.3843 5.069
-2.01512 -45.264 11.1135
-13.1761 -30.9786 8.2051
-14.4137 -26.6524 5.8659
-4.7825 -44.8449 10.6345
-2.88208 -42.4146 13.5716
-12.5707 -30.0069 8.31826
13.0495 -51.4994 7.49812
-10.9338 -38.3095 8.45799
-15.3047 -26.3784 5.31691
-12.2471 -31.6918 7.99143
-6.699 -42.8926 10.1704
2.6229 -50.5831 6.94075
-2.56328 -41.6076 12.7492
3.26654 -45.8806 12.1072
-1.62527 -44.3034 14.7808
-1.37325 -42.29 12.6585
-5.01916 -41.154 13.5009
15.8887 -50.5557 9.47493
-13.4427 -30.1804 8.1117
1.89255 -44.7178 12.6026
10.0132 -51.6583 8.04104
-14.9536 -30.0184 5.51734
-0.90648 -44.6883 14.1419
5.55319 -48.3812 14.133
-5.17855 -39.3801 12.0023
-13.1924 -32.0929 8.85661
-12.8161 -33.5768 8.67553
3.15836 -44.8594 12.4265
-1.93166 -43.0176 12.9855
-15.092 -25.9035 5.05785
-12.7085 -33.1938 8.83309
-13.7642 -28.7208 5.90342
-0.320045 -43.8995 12.4556
1.06719 -45.8013 12.0905
-0.514476 -44.9373 13.8604
-14.3591 -25.5721 6.3156
-12.2199 -36.3828 9.7088
10.8156 -51.2901 7.54322
-12.8488 -32.4447 8.61583
-11.2081 -37.1073 5.47181
-6.08051 -43.944 5.27555
2.42802 -47.092 17.2239
1.38912 -46.4675 14.576
-1.96277 -46.3547 11.0177
-15.4659 -26.3388 4.51541
-11.8662 -37.3279 9.34872
20.8032 -52.0414 9.24556
-3.73586 -40.1576 13.1462
-13.646 -26.6797 6.81827
12.7569 -52.4883 8.54267
0.737741 -44.414 11.6716
-13.7309 -32.2986 8.97714
11.8278 -50.4859 8.46928
0.449605 -42.0594 13.0227
-11.5661 -33.9694 8.89419
-3.44139 -42.3125 13.3898
17.1728 -52.2627 9.81227
4.40382 -48.0261 16.3548
-5.32596 -39.4341 13.4647
2.89179 -43.0212 12.7589
-13.9944 -28.6148 7.90664
-12.6574 -26.8022 7.14098
-12.375 -33.3838 8.94119
6.41084 -50.1049 6.76435
-4.29299 -44.9493 10.558
1.63679 -45.4879 12.3853
-15.6331 -27.7586 6.57278
-13.684 -26.1596 5.49788
-13.6535 -30.2013 7.90733
-14.7488 -27.6755 7.18711
-14.4058 -29.8596 7.31107
-12.4487 -31.0046 8.0714
6.52513 -37.2624 26.8927
-12.6884 -29.0891 8.19245
1.98902 -46.5099 15.7729
2.32601 -51.6899 7.34017
-14.0473 -25.1718 0.370483
5.62071 -48.5266 15.6294
-7.53497 -42.2637 10.9751
-15.0393 -28.0723 6.82445
0.0201538 -45.3274 14.248
-7.76656 -42.0173 9.81774
-0.310791 -42.5438 12.7426
-14.032 -24.4911 0.720399
1.57745 -47.0967 11.7577
14.8133 -52.0517 8.91016
2.06552 -46.5126 17.3925
-13.6628 -28.992 7.37879
4.32823 -48.2736 12.6769
2.29161 -46.9239 15.123
0.953486 -43.9839 13.5072
5.38665 -47.1277 11.4653
-14.5442 -26.0289 1.26738
6.1017 -48.9402 15.2854
-13.7928 -26.9865 6.35533
-4.15972 -43.3134 18.321
-2.32124 -43.2991 14.3339
6.38355 -46.4724 12.2214
-15.2467 -28.5758 7.5371
-13.2272 -32.9468 8.75249
[...]
POINT_DATA 10000
SCALARS t float 1
LOOKUP_TABLE default
255.913
211.066
211.153
213.632
212.027
215.147
237.626
214.694
209.931
228.814
234.421
228.019
213.869
212.218
211.825
213.694
221.946
213.765
210.438
211.034
234.757
213.893
211.464
248.244
224.806
252.448
236.601
212.156
231.534
210.39
248.094
208.547
270.341
245.198
213.154
210.551
231.657
211.828
210.877
212.308
238.861
242.846
210.971
214.69
209.869
216.222
229.656
216.008
210.008
240.968
209.987
213.879
227.152
243.878
212.493
218.471
213.334
259.807
221.572
210.916
225.116
224.917
246.143
218.177
246.047
237.843
212.771
224.377
211.987
213.772
213.315
241.019
211.783
231.596
213.809
235.826
210.777
269.68
209.852
247.256
224.534
241.81
226.555
212.361
211.038
212.999
227.982
216.119
237.541
213.484
251.303
236.359
211.253
212.167
236.163
237.226
250.031
223.979
211.894
263.393
231.853
236.948
247.861
210.537
234.823
239.631
212.116
222.524
211.75
208.709
233.792
209.783
211.259
211.492
228.659
211.512
233.565
213.026
253.19
233.962
213.02
211.453
227.33
210.892
237.589
226.779
211.358
213.903
242.657
223.283
219.146
229.532
237.655
211.003
211.574
218.617
221.135
210.383
210.206
238.381
210.764
243.859
212.373
210.759
218.205
214.037
241.568
236.406
263.73
268.812
210.324
235.586
242.752
212.64
210.466
218.621
266.426
222.806
214.4
211.446
252.948
211.125
225.049
211.971
213.262
213.495
271.49
256.991
212.934
248.212
227.998
218.141
211.666
210.387
216.722
211.404
244.446
238.708
228.179
249.262
226.659
249.341
225.521
279.667
217.495
211.167
225.744
210.785
210.213
219.517
220.518
213.807
215.136
211.187
211.101
222.604
224.368
213.011
212.24
227.597
234.747
211.598
238.627
237.906
211.822
210.605
236.382
231.595
231.96
211.1
271.895
241.959
291.062
234.977
237.008
226.665
229.756
218.55
211.619
232.635
212.172
211.289
235.383
230.652
221.504
230.849
252.388
225.364
232.769
215.226
211.637
226.608
226.19
220.872
241.694
242.644
223.806
212.358
235.612
221.294
215.411
211.973
262.273
209.583
211.251
238.922
240.34
216.787
273.325
226.969
218.91
252.465
213.088
211.105
234.359
259.873
237.892
212.952
212.415
222.386
218.944
226.923
222.581
212.5
211.483
225
254.296
213.217
238.017
251.713
263.118
212.744
241.951
211.468
212.585
231.678
222.381
210.403
256.023
235.693
231.225
260.63
221.899
212.133
226.97
211.859
213.417
211.25
254.11
211.157
228.004
245.977
212.712
213.202
227.257
228.504
225.636
251.097
229.636
214.739
230.454
211.65
210.164
213.9
211.023
214.076
219.696
228.555
210.735
224.087
249.046
213.468
212.624
211.12
224.257
225.242
210.128
212.153
253.256
224.413
245.657
210.807
210.864
213.327
243.41
219
228.249
225.671
247.952
247.274
210.704
213.401
211.426
258.242
220.274
221.121
212.864
238.732
220.529
209.344
223.327
223.637
211.172
223.695
213.232
217.042
210.823
214.238
210.081
230.097
236.877
223.673
233.999
212.57
210.855
240.275
249.292
229.811
235.315
233.936
228.937
212.738
228.326
212.026
226.236
286.259
211.338
213.645
238.005
213.52
216.71
210.795
284.764
211.604
219.487
210.927
233.533
213.455
212.679
212.621
210.434
279.411
211.642
241.822
212.16
213.718
209.666
232.289
224.718
222.115
212.897
207.795
226.11
216.883
215.819
210.795
213.296
242.827
210.859
211.46
211.59
219.374
229.109
232.651
252.888
210.818
227.072
238.234
215.266
211.302
224.752
209.987
275.806
211.398
229.869
238.351
214.98
233.937
213.249
235.264
235.114
219.718
241.188
213.034
269.616
216.645
235.511
238.718
275.27
210.784
243.855
254.585
216.732
218.648
217.249
249.277
234.47
243.794
211.08
239.233
213.258
229.085
235.765
210.832
213.336
234.473
237.719
211.327
237.889
219.545
229.21
230.342
211.523
240.562
249.161
210.531
225.666
209.138
212.761
209.094
222.425
236.215
212.011
252.554
274.125
252.942
227.04
209.759
213.499
214.865
221.67
215.729
226.553
227.407
232.64
223.398
224.641
214.72
240.808
245.235
210.759
231.978
213.081
221.267
211.842
245.608
223.689
212.334
213.267
235.006
235.578
239.983
240.802
212.276
238.41
211.852
211.201
230.771
238.271
244.954
246.733
211.033
219.803
248.411
211.078
215.372
211.252
210.006
242.449
213.222
211.209
237.719
211.818
241.223
246.333
228.208
214.148
231.219
213.168
210.267
210.582
235.298
260.838
213.229
231.237
211.506
212.706
218.523
245.77
228.797
212.537
226.698
242.753
239.444
213.207
211.781
248.158
215.434
231.558
220.708
235.245
227.411
215.085
220.07
242.48
209.937
238.376
221.382
247.027
224.929
245.869
256.674
236.773
212.285
233.126
233.992
213.367
237.367
210.301
211.27
214.625
210.632
221.733
211.582
211.708
239.917
226.391
252.384
212.067
226.414
231.935
243.977
218.745
233.541
210.99
212.708
210.889
214.941
219.573
209.946
240.354
213.207
211.093
215.135
210.193
246.736
242.049
226.367
247.264
221.8
279.906
212.49
215.614
213.107
247.46
222.914
218.408
272.39
239.347
211.585
234.414
210.829
216.652
232.545
213.573
262.297
229.264
237.891
212.85
218.337
212.586
212.619
211.275
231.376
228.026
210.767
212.085
220.132
212.696
219.345
236.59
211.62
216.61
236.162
212.187
213.178
228.866
211.261
237.322
257.118
227.124
226.798
219.536
212.731
213.229
262.233
228
221.891
212.811
237.354
213.368
223.99
227.607
211.595
240.503
231.104
236.387
210.877
210.195
213.646
211.844
210.655
245.293
231.514
259.715
235.389
286.596
274.009
228.898
225.934
213.265
232.534
239.324
222.827
221.312
224.922
230.748
227.299
211.298
211.559
235.87
211.773
235.402
235.557
211.935
210.317
213.644
209.735
211.442
211.012
209.653
211.652
253.2
210.928
230.127
259.735
211.491
213.311
234.362
250.929
211.01
218.096
212.141
239.22
218.665
231.183
224.791
239.94
221.842
224.764
233.769
210.494
236.929
221.839
211.524
253.705
210.61
211.96
211.088
249.77
252.647
210.926
232.112
211.737
229.43
244.28
211.198
228.874
212.925
211.035
230.996
211.16
212.537
209.542
237.852
231.748
245.305
210.878
213.263
238.444
216.07
223.135
212.663
225.064
249.332
229.922
211.503
269.823
210.953
229.631
236.269
250.741
237.138
246.942
239.783
215.981
229.588
228.685
212.257
212.45
225.579
213.543
211.094
216.247
209.696
241.632
245.205
238.797
213.933
222.64
246.841
231.555
231.04
225.244
226.441
238.925
246.426
245.574
218.085
240.03
234.02
221.27
211.078
211.288
242.038
212.109
258.212
249.208
209.267
229.354
244.589
215.987
232.222
212.764
224.18
224.934
242.959
235.444
217.836
211.223
220.726
227.095
245.679
230.365
221.41
229.896
225.846
257.948
274.997
225.966
211.141
247.129
215.29
212.311
213.426
217.191
216.059
220.433
216.304
208.978
231.293
211.807
235.256
212.072
214.093
246.481
239.632
260.388
270.632
237.696
269.017
210.35
243.398
235.176
249.239
235.415
212.389
229.083
226.929
210.83
229.214
210.527
221.001
212.898
275.788
246.175
211.327
226.686
213.627
212.46
251.525
211.95
247.036
226.927
230.502
213.444
233.628
269.872
225.043
211.71
210.677
228.417
238.746
238.513
213.102
211.369
215.456
212.139
220.059
224.602
227.531
232.087
212.443
210.174
227.111
213.247
240.74
240.13
211.784
267.87
210.949
211.862
211.3
209.429
240.892
234.531
216.621
213.395
209.773
238.454
213.502
219.047
275.889
222.046
217.898
247.38
212.31
233.984
211.486
211.084
251.783
249.306
212.355
211.291
243.74
235.87
210.427
233.955
238.721
233.252
217.91
214.967
211.658
217.535
212.901
217.639
213.163
235.796
212.233
212.079
211.904
219.008
210.895
211.701
210.899
237.985
239.406
210.207
211.291
212.537
215.571
211.481
222.296
220.938
211.717
217.116
220.323
227.255
213.623
213.016
251.003
231.032
213.051
271.312
211.156
243.962
213.583
249.821
228.412
238.58
213.611
258.434
211.305
214.587
217.518
234.363
240.459
210.719
227.591
221.027
211.432
214.81
238.074
229.988
246.201
236.134
211.379
238.349
211.268
211.534
220.694
231.942
208.259
228.952
263.207
246.452
211.126
211.195
210.261
212.131
260.997
210.81
236.324
212.197
234.589
258.822
222.262
211.091
239.299
214.498
211.308
212.843
228.651
213.197
211.667
211.505
220.266
230.148
233.098
210.251
213.257
211.956
253.851
239.681
210.901
233.347
233.602
212.731
212.076
235.145
213.143
213.718
215.494
211.891
239.019
223.866
235.125
239.938
212.564
233.26
211.409
218.454
231.535
243.263
224.433
212.501
211.065
212.409
242.956
266.278
240.216
232.443
213.272
220.581
220.416
211.822
228.618
210.356
213.647
214.378
237.626
211.553
226.641
221.294
235.979
261.552
213.617
208.273
234.577
245.195
228.803
255.403
245.692
236.735
244.384
258.381
240.374
224.553
241.725
211.811
213.313
236.562
237.083
234.07
262.432
279.104
235.034
229.024
244.801
214.28
213.827
221.993
250.971
232.477
211.182
214.362
210.667
241.729
212.005
229.38
286.906
211.368
235.774
219.001
213.603
210.188
266.16
237.034
263.457
208.548
218.172
227.309
232.193
219.048
250.42
234.61
217.754
231.063
211.736
224.58
231.864
263.403
213.332
269.42
245.072
212.198
238.095
244.781
211.123
210.031
226.222
211.168
246.058
213.721
246.697
212.848
245.95
273.021
229.652
247.253
209.455
217.051
283.842
249.075
211.318
211.438
239.623
212.487
231.777
211.755
237.882
226.547
232.332
216.634
238.905
221.2
256.08
211.137
211.873
212.311
211.33
235.484
212.441
213.451
210.884
225.7
228.723
252.649
229.547
219.173
247.652
213.036
215.918
210.819
236.397
224.476
213.052
231.919
226.349
210.891
224.261
211.173
229.588
214.204
222.851
211.423
221.865
217.634
210.3
211.727
234.794
222.035
230.95
221.818
266.121
229.389
223.314
213.308
233.631
212.084
236.645
226.302
221.496
219.27
226.671
215.589
249.05
227.308
238.093
223.516
244.504
211.922
211.159
209.692
210.376
248.586
211.541
239.509
243.831
223.36
211.284
217.959
232.661
211.286
211.004
209.887
236.376
217.985
232.018
214.91
215.781
211.335
229.744
227.516
251.011
211.773
237.736
229.65
209.44
236.946
220.827
236.466
230.979
213.358
243.798
235.641
223.063
213.074
209.595
223.489
232.747
214.111
220.567
214.71
213.221
239.54
212.892
230.615
228.506
270.355
229.808
212.313
229.778
243.923
235.614
213.518
212.123
223.168
274.626
211.444
211.114
226.317
239.479
215.12
237.588
223.159
229.852
218.072
231.648
228.272
265.848
211.862
225.354
230.951
210.769
212.827
279.113
236.806
211.373
213.862
213.296
211.326
266.731
247.809
212.554
213.82
212.255
222.108
212.791
211.719
212.123
268.07
221.461
240.142
213.103
212.415
252.323
212.798
215.69
211.826
212.976
210.956
241.516
240.774
214.315
225.036
210.085
214.087
210.932
246.75
215.493
213.237
211.705
228.278
249.378
211.416
221.727
222.776
212.419
212.807
239.741
231.595
226.879
262.832
225.023
229.474
210.454
229.629
236.858
261.113
209.999
212.254
261.456
210.78
230.624
223.637
209.795
210.31
211.766
274.608
217.177
235.179
213.501
228.33
232.012
225.611
252.537
271.432
213.791
212.842
214.701
211.657
239.935
227.523
221.119
245.024
210.39
228.795
210.995
228.838
226.044
220.142
218.744
211.551
211.124
238.294
218.8
210.837
212.331
216.689
213.041
228.983
208.785
233.381
213.261
224.453
224.761
227.027
215.186
222.642
243.747
250.763
229.838
211.886
256.01
210.709
235.522
213.022
233.152
216.357
228.349
209.234
213.507
211.854
215.405
218.294
229.082
211.757
210.333
222.496
216.069
231.723
217.115
210.699
213.526
224.904
225.76
256.778
210.811
217.283
227.429
224.457
231.691
237.788
217.381
264.486
229.281
229.841
211.661
232.087
233.94
242.933
219.446
247.71
236.528
211.058
217.406
234.93
229.274
244.036
209.84
238.746
223.778
210.597
238.68
210.822
241.932
243.555
265.791
213.692
210.947
210.092
235.019
210.605
225.269
210.86
211.746
213.683
213.37
267.653
228.818
212.406
210.183
211.736
225.847
246.9
233.814
210.906
211.495
215.111
235.956
221.644
232.661
213.454
210.6
210.303
235.197
212.078
224.286
222.59
227.836
212.903
210.85
242.506
282.362
213.045
213.437
250.524
212.735
252.093
213.374
257.013
245.419
210.713
220.188
244.995
245.846
215.746
227.75
213.511
226.94
245.748
226.621
213.212
210.927
220.937
209.617
248.065
236.155
211.456
248.264
235.904
209.349
212.108
211.512
213.481
214.726
230.213
212.54
244.701
223.882
230.348
212.64
220.933
209.119
219.117
211.403
279.13
225.795
213.228
215.041
210.693
275.442
255.908
211.356
210.741
231.937
222.939
238.61
211.659
211.572
221.707
225.492
230.09
236.84
212.504
213.074
213.51
239.453
222.088
269.541
214.559
241.619
227.773
224.416
224.993
240.527
216.939
240.889
212.121
224.343
228.335
210.539
216.862
228.937
258.434
233.374
248.132
235.95
223.444
211.493
213.795
252.497
250.979
218.095
234.142
210.276
217.679
237.429
212.155
240.78
227.49
234.222
225.607
209.941
240.463
257.071
256.188
211.776
223.602
212.143
210.164
226.338
213.99
243.492
224.15
211.929
267.982
242.31
216.377
248.585
213.733
234.611
224.899
212.04
251.911
235.296
211.143
213.492
224.483
209.404
232.136
245.6
209.858
240.517
210.444
252.089
213.135
212.893
253.521
241.239
211.13
229.444
238.49
212.347
266.073
241.366
211.371
233.581
214.01
210.618
216.817
228.753
209.049
224.842
211.888
227.1
237.484
228.909
256.889
234.623
237.822
219.055
250.21
235.959
212.486
234.039
233.915
217.14
246.146
215.278
224.307
247.048
226.484
221.308
212.254
244.894
239.778
232.328
233.139
224.512
213.54
209.496
211.358
211.185
216.215
231.903
232.916
213.376
213.624
213.293
221.301
233.712
219.106
230.241
210.902
227.481
229.667
217.828
211.049
222.652
224.518
224.587
230.996
230.883
228.737
211.918
212.075
229.682
228.152
210.424
286.483
231.186
212.204
220.743
288.503
235.875
230.118
210.418
227.444
227.692
241.046
264.853
230.623
213.117
211.072
284.156
209.647
211.111
216.303
243.741
239.828
239.441
225.455
228.515
211.259
227.243
227.358
215.966
256.781
235.914
229.633
257.402
221.741
212.803
214.664
217.522
215.262
252.495
235.511
216.374
231.393
240
258.725
213.127
214.768
222.439
210.727
211.144
237.474
219.453
230.659
210.695
212.273
229.24
211.877
208.628
224.399
238.862
241.93
237.143
227.178
277.214
210.787
217.307
217.221
238.192
209.548
251.927
237.939
240.153
237.018
229.501
219.335
216.18
222.692
232.717
218.404
211.975
230.904
212.164
212.213
241.86
254.66
230.747
212.379
213.85
213.467
238.887
246.245
234.93
225.087
232.504
217.12
231.482
209.828
211.606
226.542
211.45
226.715
231.153
210.222
212.787
210.946
222.863
213.644
219.184
211.393
221.618
267.329
208.314
212.055
241.493
212.425
211.493
247.123
232.622
269.449
242.151
212.065
247.61
211.242
239.957
227.102
227.524
220.386
210.928
234.944
215.554
262.987
211.72
212.502
257.823
231.061
219.383
210.975
213.714
209.654
212.307
240.859
239.381
224.331
247.032
229.226
211.906
211.394
236.973
239.905
211.322
263.214
220.58
213.006
238.755
212.303
211.07
241.385
230.062
291.576
219.197
238.066
221.18
217.638
233.265
233.724
239.708
284.613
234.213
244.955
212.781
212.985
234.584
228.484
247.579
231.336
237.719
215.486
212.187
221.358
222.23
227.602
212.064
242.202
210.866
211.075
216.892
211.479
231.92
211.408
223.96
221.097
212.671
211.841
211.731
232.54
210.852
211.015
218.591
225.821
246.096
210.518
235.499
251.646
215.106
211.869
212.448
221.002
254.677
230.52
212.15
253.794
216.408
252.993
217.851
239.711
225.33
231.187
234.315
237.516
211.111
210.503
226.586
214.173
212.354
211.138
215.64
225.769
245.676
234.23
230.198
224.756
211.899
252.165
215.506
226.694
211.053
239.517
211.211
233.435
222.971
211.067
219.794
211.706
241.78
211.106
213.508
220.907
241.52
211.671
261.841
213.728
216.574
211.33
215.316
238.925
247.07
224.773
224.105
226.107
219.183
213.827
210.02
231.096
244.871
245.288
233.062
240.684
237.501
246.325
238.865
220.298
239.734
228.594
256.01
230.096
210.321
235.931
230.194
217.674
211.449
219.346
231.129
230.578
224.137
217.074
239.542
252.275
240.948
214.242
220.618
229.354
248.746
208.671
231.395
219.733
239.257
265.588
229.934
223.37
211.965
210.502
231.488
213.203
241.482
231.985
248.715
210.586
235.111
212.419
210.012
242.671
240.798
226.51
240.259
212.883
244.619
223.81
230.421
211.542
216.723
214.099
224.094
224.176
213.351
231.125
213.58
224.978
214.651
213.626
227.406
210.73
263.983
210.967
234.121
272.783
234.671
238.803
266.232
214.426
225.569
212.012
242.534
223.253
225.105
213.691
210.11
227.058
234.744
241.615
247.104
233.244
225.622
213.29
213.387
274.922
209.167
222.239
250.64
211.023
211.359
239.26
226.397
249.363
241.035
224.681
212.418
235.517
219.066
237.742
228.701
233.786
211.453
229.403
211.364
210.089
213.888
226.305
233.855
214.234
212.292
213.689
252.678
213.36
269.841
230.467
230.44
212.78
237.001
234.634
228.684
269.851
216.783
216.086
240.549
211.253
221.29
226.619
232.075
214.638
215.254
213.916
238.295
221.702
215.846
211.726
213.867
240.553
211.073
247.82
217.711
249.21
210.06
225.39
243.642
217.641
283.137
238.792
233.928
209.855
216.012
266.211
240.177
214.017
227.475
211.418
224.958
213.299
231.13
213.016
216.706
243.562
239.393
211.086
209.424
210.204
211.166
229.544
212.329
219.168
231.454
212.719
217.509
217.993
269.167
211.806
211.261
220.62
244.18
234.612
227.531
237.962
209.9
245.189
216.476
222.129
211.228
210.893
251.057
211.54
211.922
239.271
226.014
222.858
234.794
222.96
209.895
216.563
211.396
216.82
210.736
210.198
255.062
237.689
228.09
264.007
229.583
239.035
211.694
211.079
212.919
210.543
213.965
234.036
231.624
240.367
210.524
214.662
211.057
214.936
227.13
211.575
211.328
215.219
210.654
226.078
242.096
226.534
210.853
237.694
209.374
236.323
232.195
211
210.742
237.343
218.212
224.83
211.912
237.462
255.454
221.007
240.52
221.884
226.018
242.457
210.422
241.79
239.85
207.864
247.975
261.903
234.386
245.681
212.31
241.338
213.685
213.561
211.937
212.887
256.969
217.081
211.981
253.741
250.033
216.778
242.859
213.531
283.518
211.198
223.912
220.72
245.688
246.224
224.21
211.052
230.724
234.258
209.306
213.302
211.827
231.445
222.691
231.905
235.996
229.856
228.877
274.508
230.996
209.772
211.274
224.436
239.721
210.928
234.866
227.603
252.406
240.833
213.44
234.879
211.997
212.959
231.329
264.04
222.85
219.714
239.655
237.756
216.138
211.927
240.69
252.692
218.035
234.193
212.825
212.532
217.855
243.163
211.584
228.915
210.008
276.455
245.535
213.198
232.925
271.621
220.098
213.132
211.033
209.34
212.494
226.9
230.581
229.724
212.248
232.972
230.3
236.425
241.724
219.96
211.383
250.998
210.731
229.501
238.189
213.778
235.352
238.346
211.673
209.978
278.482
235.76
211.73
213.207
223.1
217.839
220.416
243.809
229.264
211.337
210.91
241.5
245.331
210.591
222.454
210.558
211.845
209.544
210.024
240.804
234.025
220.276
253.527
217.581
241.882
248.192
212.43
246.531
214.421
249.519
224.834
258.746
241.193
210.469
225.13
244.476
212.168
231.102
209.937
232.895
232.194
210.499
222.3
213.605
236.466
211.528
239.753
255.62
236.487
213.677
224.249
222.283
259.852
213.722
218.156
216.413
255.807
211.868
231.495
238.394
225.53
210.281
212.152
215.969
231.82
284.887
213.896
238.156
211.351
233.56
238.387
247.027
212.259
221.711
211.793
230.438
239.772
235.763
211.915
250.619
228.989
215.664
220.3
223.252
211.997
212.37
213.154
211.142
239.579
235.318
210.771
223.458
248.167
221.931
211.08
231.452
213.346
241.654
213.153
216.169
288.182
230.026
211.128
243.13
239.28
211.498
251.541
259.69
211.807
211.35
213.976
222.644
213.233
240.862
255.604
213.581
231.483
240.652
213.773
220.888
215.939
245.601
229.74
227.928
233.347
213.729
213.478
222.606
211.521
232.879
243.021
230.84
213.581
232.616
214.081
235.929
222.152
212.717
239.527
213.742
212.423
229.33
237.502
211.362
230.584
224.805
210.75
251.322
222.357
217.466
247.965
213.102
229.253
213.33
212.845
229.605
210.85
211.09
210.225
245.887
210.95
213.219
211.573
213.466
238.679
241.531
212.056
213.494
212.407
224.597
231.081
228.912
214.735
229.628
212.652
210.951
212.227
224.734
210.986
227.113
223.998
234.168
212.716
213.689
241.545
212.202
212.537
238.235
211.094
210.056
225.193
235.28
237.698
216.934
253.438
210.761
226.951
211.125
211.826
214.511
213.604
212.132
211.854
218.329
237.983
210.376
221.688
214.634
237.422
213.943
224.714
211.43
223.29
210.824
226.825
237.87
231.01
216.913
226.887
229.506
247.441
232.731
215.935
221.691
232.961
209.607
215.765
262.079
234.337
212.106
211.363
216.582
216.185
212.927
225.364
238.097
225.869
237.149
216.753
258.36
212.626
211.306
247.548
225.513
212.787
208.989
244.136
224.692
210.392
226.127
242.716
210.799
231.147
212.151