# vtk DataFile Version 3.0
vtk output
ASCII
DATASET POLYDATA
POINTS 10000 float
-24.5399 -28.8486 6.40038
-20.0206 -33.2954 11.2219
-21.1796 -29.9095 8.69558
-22.2136 -36.7441 14.5356
-18.5789 -33.6246 10.9562
-22.1654 -34.9943 13.5421
-22.244 -27.9451 7.08334
-14.8041 -32.4817 10.8864
-17.505 -30.4405 10.085
-21.7269 -29.4613 8.14845
-22.4028 -29.4502 7.06664
-21.8842 -30.2753 8.18511
-22.206 -36.9658 13.9951
-20.0582 -36.623 11.4351
-20.5836 -37.2258 13.2107
-18.5243 -33.6736 9.73383
-23.1228 -32.4192 7.35751
-21.2826 -35.7825 13.2306
-17.9986 -32.8509 10.3287
-15.7687 -32.7186 11.6003
-23.5434 -35.9043 6.97908
-21.545 -36.6576 14.0676
-19.104 -33.1652 11.6985
-26.0663 -29.0969 6.18067
-21.9548 -30.134 8.79612
-24.2417 -29.3465 5.76601
-23.63 -31.9406 6.87447
-23.2859 -37.0976 14.7151
-23.2434 -29.3836 7.53345
-18.8952 -33.3079 11.8322
-25.474 -31.649 6.24805
-15.9918 -28.3659 10.2151
-22.2937 -29.1316 6.9587
-24.0344 -29.2323 7.21796
-18.6059 -32.751 9.22635
-20.0871 -33.4151 11.8904
-20.5402 -30.2743 8.16049
-19.6314 -34.9983 11.0328
-18.5085 -33.3501 10.0296
-20.4071 -33.7211 12.2756
-22.8108 -33.3353 6.90228
-23.2991 -31.6237 6.98063
-19.3229 -33.5329 11.1302
-19.8925 -32.498 9.81078
-19.0493 -31.8642 10.511
-20.1754 -30.9922 9.36092
-21.0351 -29.9838 8.17419
-20.722 -31.5884 9.39878
-17.1229 -33.91 10.6025
-24.3983 -31.9198 6.45127
-17.7444 -32.9899 11.7535
-22.2434 -32.1943 9.014
-22.466 -30.1018 8.15191
-23.9151 -31.6375 7.00393
-21.4084 -34.7668 12.3722
-23.185 -31.6922 7.60505
-21.1861 -37.6915 13.3171
-24.6381 -28.4358 5.95453
-21.7534 -31.2894 8.61402
-17.343 -32.896 10.3607
-21.9143 -30.2271 8.80129
-21.3711 -30.445 8.73691
-24.0141 -27.1005 6.46847
-20.2675 -30.2348 9.31951
-22.4342 -29.1316 7.37356
-24.3272 -28.9388 6.94318
-23.3506 -36.1789 15.176
-20.6381 -29.6348 8.40245
-28.2862 -38.3245 17.8504
-22.5522 -37.1359 14.2995
-21.1873 -37.6387 12.9032
-22.9151 -29.454 6.4141
-20.4878 -34.8361 11.9419
-22.3981 -29.3253 7.25969
-22.4206 -36.3229 13.8145
-21.9152 -36.2749 7.21438
-18.0788 -32.6779 10.5895
-25.3677 -31.1152 6.02473
-18.7155 -31.4005 10.8166
-23.9869 -34.0622 6.83079
-24.4949 -31.8365 6.30656
-23.5569 -33.8504 6.54872
-22.4568 -31.0637 8.36425
-20.9982 -35.6375 12.161
-18.0047 -32.1084 9.75416
-21.2577 -35.2584 13.0485
-22.2048 -30.9018 8.81869
-20.733 -31.6886 8.81447
-23.0679 -31.4014 6.99431
-21.6131 -37.9242 13.6633
-24.9041 -32.3687 6.5604
-22.3105 -28.6785 7.48995
-19.1195 -31.9579 10.889
-29.991 -39.1135 19.1066
-23.6035 -30.3062 7.67997
-22.0933 -29.5847 8.06087
-25.3926 -31.9777 5.74848
-21.4178 -35.7233 7.79633
-18.7034 -32.2454 9.16103
-26.0801 -30.1419 5.87668
-22.4075 -30.4696 7.60253
-23.049 -29.6558 7.35067
-25.7222 -30.7305 6.76138
-18.7605 -32.0814 10.1211
-23.1344 -31.2532 7.52956
-22.9365 -32.1511 7.66985
-20.4517 -34.9394 12.5197
-19.0734 -31.4308 9.01064
-19.0942 -33.5965 11.5874
-17.6608 -31.2918 11.4407
-21.583 -31.6075 8.27779
-16.3852 -33.418 11.4702
-17.0288 -35.0583 11.8124
-19.0926 -34.0688 11.2581
-21.6043 -30.4385 8.7477
-18.5523 -33.1562 9.98274
-23.0168 -33.6161 6.85075
-20.3983 -28.402 8.49775
-23.8062 -28.4318 6.23437
-21.3597 -30.2728 8.13479
-20.8487 -35.0148 13.0648
-23.8836 -38.132 15.1703
-21.3532 -31.7562 8.77095
-16.7884 -34.3829 11.4049
-22.6252 -29.9091 7.85259
-23.4813 -33.1898 7.09055
-18.8509 -33.8736 10.1309
-22.1586 -35.3922 13.4035
-24.514 -29.8 7.6847
-22.3321 -29.835 8.29121
-19.0169 -31.0323 9.07997
-22.5471 -35.0086 7.31596
-24.049 -29.8561 6.92637
-18.5059 -33.1171 11.0864
-19.4103 -31.4021 9.67531
-22.1012 -34.5619 7.45575
-22.5088 -32.9668 9.31872
-17.8694 -33.3837 10.2798
-18.5578 -33.5906 10.8014
-21.7427 -28.5487 7.32085
-19.932 -30.5339 9.78178
-23.7315 -34.1797 6.98704
-19.6139 -33.1324 12.2117
-24.3025 -39.1311 16.4883
-21.6534 -30.1581 8.66501
-21.8642 -37.1259 13.9462
-23.1013 -27.8982 7.13492
-23.8488 -29.933 6.87819
-25.4812 -29.9658 5.86628
-23.0925 -29.191 6.66679
-18.7731 -32.9758 11.8494
-24.2216 -34.8566 6.80562
-24.795 -36.1929 5.92404
-23.3385 -36.4736 14.7951
-15.4747 -35.4639 11.0197
-19.6462 -28.6108 8.81642
-24.9095 -31.1921 6.27614
-19.2985 -29.0621 8.93174
-20.5395 -30.4044 9.4861
-17.802 -34.3003 10.4182
-24.3553 -29.38 6.65985
-18.226 -33.5066 11.262
-22.8155 -35.395 7.17483
-19.8413 -33.3844 11.1891
-21.6985 -37.3784 13.8511
-22.6957 -37.4399 14.4075
-23.0006 -28.1901 6.70459
-24.611 -29.2313 6.68133
-21.1629 -32.285 9.74402
-22.8758 -29.9043 7.11794
-22.2997 -29.6338 8.13757
-21.1489 -35.5428 8.17985
-23.4675 -37.9432 15.085
-24.8974 -39.5399 16.1007
-21.3426 -34.5349 9.88582
-19.5149 -34.1319 11.0587
-22.4313 -32.3553 7.85571
-21.9474 -31.2728 7.94548
-21.1926 -29.0057 7.87912
-23.4131 -29.9093 7.33231
-20.4861 -29.9829 8.7853
-21.7705 -28.5145 7.19158
-22.0229 -27.5426 7.39364
-23.7299 -29.6207 7.39587
-21.5734 -29.7157 8.47047
-18.4072 -32.5479 11.1028
-21.3359 -28.9538 8.06925
-17.9762 -34.2572 10.3851
-19.7057 -34.3595 11.9777
-20.3877 -29.176 8.71538
-20.2737 -31.7052 8.75042
-17.0185 -29.8839 9.84172
-21.208 -32.7537 9.41029
-18.5879 -35.1175 11.0168
-24.0154 -39.2647 15.8269
-21.1889 -29.5082 8.14376
-21.5595 -42.5822 6.88986
-21.5652 -37.1077 13.5453
-20.9781 -33.3498 11.4813
-22.0076 -28.9286 8.09587
-22.1814 -28.5603 7.23801
-20.6615 -35.1764 11.8142
-24.2722 -31.6802 7.05207
-22.669 -37.4774 7.03505
-17.1289 -33.0164 11.4752
-15.3448 -34.2895 11.1719
-22.1621 -27.9137 6.77605
-21.6069 -27.8131 7.28014
-22.1419 -27.9868 7.14271
-25.0426 -38.305 15.7813
-25.5675 -28.5548 5.42678
-23.7523 -34.1582 6.61295
-23.9291 -29.7803 7.29508
-22.1732 -31.6429 8.16496
-24.3664 -30.7576 7.26044
-23.3004 -30.7083 6.93773
-20.0118 -28.9908 8.01109
-21.385 -32.1245 8.96512
-19.8932 -33.775 10.8752
-23.624 -32.1297 6.78189
-18.398 -35.452 11.096
-18.5089 -33.9284 9.62428
-22.4696 -31.426 7.49654
-20.2434 -30.9711 8.39341
-21.7365 -31.5492 8.92023
-22.4956 -27.8719 6.92484
-25.1138 -31.5161 5.88708
-23.5927 -29.4482 7.6082
-22.0782 -31.9582 8.54324
-20.5241 -32.9116 9.78484
-18.6905 -33.5453 12.0733
-20.5878 -29.2156 8.68508
-21.7035 -29.6256 8.2224
-21.6185 -32.9617 7.73925
-23.6631 -30.2469 7.7424
-24.1454 -29.5339 6.74568
-21.1029 -30.0106 8.21991
-20.8052 -37.5663 11.7271
-22.167 -32.1388 7.89388
-23.0885 -30.6162 7.7016
-19.3003 -31.5587 9.82714
-19.6245 -33.6148 10.091
-23.2051 -27.4475 6.96872
-16.6093 -32.9645 11.4486
-18.3818 -30.7383 9.38748
-23.0277 -37.1165 6.83331
-23.347 -30.113 6.96133
-18.3189 -32.1631 9.50133
-26.7179 -29.1951 5.57486
-21.4229 -29.1502 8.09775
-21.3702 -30.8029 9.05968
-23.7892 -29.9023 6.11618
-20.5969 -31.7287 9.46334
-18.1371 -31.2596 10.711
-23.6354 -33.1258 6.43369
-25.28 -32.0149 6.2358
-23.1476 -31.3737 7.98727
-21.823 -36.414 12.6605
-24.3264 -37.3473 15.6824
-21.715 -31.6664 7.36819
-22.4627 -32.4617 7.81874
-21.2333 -28.7168 7.96095
-22.7689 -37.1528 7.26905
-21.7451 -35.6291 13.3574
-19.7716 -30.2478 9.04702
-21.0755 -30.2814 8.53569
-25.1916 -30.7903 6.43743
-19.7509 -33.2076 11.6442
-23.2571 -34.5344 6.95166
-23.9617 -28.0168 6.80949
-26.053 -29.3572 6.48219
-20.1713 -33.5873 13.0601
-22.9945 -27.8263 6.58855
-18.6461 -33.3003 12.0505
-20.1819 -32.437 11.875
-21.127 -31.315 8.11992
-23.2123 -30.9886 7.62863
-17.9065 -32.4274 10.8097
-25.2731 -32.4689 5.8514
-23.2814 -30.4415 7.06425
-22.4137 -31.0241 8.57093
-24.739 -29.8842 6.45709
-23.3273 -32.8347 7.02301
-29.1685 -38.6012 18.352
-21.0951 -28.9142 8.28817
-18.7236 -32.4713 10.1661
-22.7662 -35.7032 13.5546
-18.9258 -32.8942 10.1036
-24.1548 -28.5302 6.34446
-18.1166 -31.4414 9.80011
-21.7135 -29.3336 8.10803
-23.8471 -28.6656 6.87472
-18.0703 -34.5341 10.3515
-21.5614 -35.7129 13.352
-21.0848 -28.7591 7.61706
-23.3869 -33.4537 7.44427
-22.1711 -30.5579 8.02219
-24.5546 -29.8164 6.10099
-21.1227 -28.3094 7.4822
-20.3691 -30.1838 9.19514
-23.1401 -38.3381 7.13637
-19.6964 -33.3252 12.5084
-17.7917 -34.1795 10.7608
-22.8938 -36.4023 14.5149
-19.1015 -33.0472 11.6889
-21.5838 -35.8096 13.4423
-15.0838 -33.0888 10.1822
-21.4645 -30.3078 8.13346
-17.5174 -33.4568 11.3824
-21.5732 -35.8444 7.77146
-24.924 -32.5444 6.24959
-21.2768 -37.6574 13.8169
-21.4335 -38.0094 13.0912
-20.6767 -30.551 10.1036
-22.8156 -29.6361 8.75924
-19.4229 -29.6399 8.96375
-16.5273 -33.6843 11.495
-19.9377 -33.8661 12.1826
-24.1416 -29.8763 6.52707
-21.6492 -28.1315 8.26139
-22.0492 -30.3315 7.2195
-19.3805 -33.4964 11.4535
-18.3806 -34.9704 10.9428
-21.8155 -37.8846 13.7717
-22.5665 -28.3141 7.16127
-22.0261 -31.6233 9.0077
-24.161 -31.6966 7.00077
-20.2863 -28.8216 8.41378
-24.2081 -31.5069 6.26286
-26.4611 -35.995 6.05174
-26.3714 -38.6707 17.2557
-22.1852 -37.8447 14.1627
-18.5169 -34.7292 10.7433
-26.0119 -29.6508 6.07892
-22.1445 -32.5324 9.0576
-21.3359 -33.3682 8.01647
-21.3863 -34.8565 12.7094
-22.0919 -28.8876 7.49456
-22.4536 -34.1401 7.69472
-18.6975 -32.9198 10.9476
-22.4331 -30.6373 8.30568
-22.3164 -31.0207 7.05189
-17.7722 -32.9238 12.066
-21.2973 -27.9936 8.2443
-21.6811 -35.583 12.8771
-21.6873 -33.6813 8.19592
-24.7324 -39.0923 15.9494
-21.4057 -36.1903 13.7117
-18.3051 -32.7437 12.326
-23.0386 -29.4546 7.65923
-24.0464 -27.8182 7.03746
-21.0282 -27.9085 7.96455
-23.6151 -33.6904 6.98762
-18.6838 -31.884 9.75104
-17.9607 -34.0385 11.4482
-23.3215 -29.5147 7.22006
-23.1788 -27.9571 6.99433
-22.4373 -30.0117 7.65751
-23.945 -30.5606 7.9278
-23.4782 -30.6254 7.44077
-21.891 -28.286 7.29822
-25.512 -34.9386 26.5908
-21.1296 -28.4676 7.80422
-23.0821 -36.7983 15.3225
-20.7296 -37.386 7.14999
-24.1773 -28.5252 6.5745
-22.6063 -38.0907 15.0153
-21.0276 -31.8285 9.39757
-23.0867 -29.6968 7.00558
-21.1508 -38.0875 13.9025
-18.6918 -28.9782 9.0876
-19.119 -33.5548 12.0254
-24.4265 -28.6659 6.63686
-18.3558 -34.1213 10.7733
-22.1959 -33.0349 7.73431
-26.3845 -38.8019 17.5529
-21.5296 -29.2498 7.40775
-20.9552 -37.2999 11.8541
-23.036 -37.0988 14.8397
-17.9194 -34.2728 12.2772
-16.6356 -34.0887 10.7296
-23.5342 -29.1542 6.95981
-22.8837 -38.7538 14.6932
-22.0823 -29.6367 6.99645
-28.841 -38.2387 18.2407
-21.995 -35.999 14.1843
[...]
POINT_DATA 10000
SCALARS t float 1
LOOKUP_TABLE default
242.411
220.836
225.977
218.227
218.801
219.167
238.249
214.634
219.982
229.41
236.686
228.396
218.65
220.106
219.592
220.551
232.858
219.55
218.95
216.434
234.231
218.881
220.139
244.377
225.279
246.758
236.654
217.743
233.515
220.018
241.993
219.47
237.813
235.966
222.871
220.95
228.622
219.885
219.813
220.58
235.795
235.995
219.883
221.16
219.893
222.899
228.659
222.383
217.413
239.966
218.852
223.034
228.643
235.828
220.259
231.41
219.259
246.201
225.523
218.364
225.206
225.419
243.708
223.396
234.89
238.312
217.015
227.79
213.666
218.33
219.513
241.53
220.844
235.461
218.74
232.362
218.616
243.939
219.432
236.069
241.149
238.291
226.894
220.363
220.929
219.762
224.697
224.512
235.986
218.885
238.963
234.622
219.778
213.633
231.549
229.793
245.789
228.454
223.333
245.898
232.036
234.444
238.451
220.198
232.158
230.746
220.478
224.23
220.059
218.32
227.215
216.81
218.403
219.666
225.347
220.015
236.061
228.611
244.001
228.724
219.912
217.064
224.55
217.098
230.68
234.475
219.597
219.203
231.937
228.119
224.089
232.017
237.31
218.899
221.798
231.23
221.296
218.833
218.793
235.869
222.13
234.821
220.498
215.153
225.904
218.776
238.08
237.568
245.748
239.927
219.907
235.931
242.542
217.619
215.005
226.859
241.698
225.971
222.821
218.272
239.864
218.649
232.917
220.604
218.845
218.173
240.726
239.893
221.043
235.81
229.259
226.016
217.224
215.791
219.397
219.939
229.403
229.385
231.585
234.267
225.522
236.803
236.569
234.187
227.304
218.866
230.485
218.465
220.783
226.693
224.869
220.895
221.567
218.598
216.079
229.381
232.255
219.083
220.535
230.395
236.478
220.68
235.452
233.284
217.692
214.977
240.407
236.954
237.779
216.184
250.392
237.684
234.708
227.788
234.328
236.72
230.718
223.491
220.271
237.268
218.368
220.829
232.336
227.027
223.944
239.465
244.734
232.932
225.463
220.845
219.991
226.805
228.787
230.002
231.148
239.033
228.373
219.65
229.282
231.263
221.338
220.14
239.761
217.032
222.937
234.919
236.812
221.952
249.318
230.085
223.845
243.468
222.17
218.853
239.509
241.839
228.961
219.66
216.201
233.161
229.6
231.415
231.667
219.338
224.387
226.527
240.695
220.801
234.917
240.305
241.786
219.845
241.939
219.931
220.878
228.342
231.583
218.285
244.717
235.9
225.804
240.877
235.138
213.312
229.245
219.947
218.846
220.038
243.121
221.026
229.811
239.078
218.506
219.391
233.558
231.725
229.231
243.742
234.961
223.824
232.27
220.321
217.866
218.068
220.131
219.319
217.471
228.709
217.961
228.559
241.355
218.97
219.264
221.547
225.931
225.271
217.028
220.772
240.306
230.376
234.81
220.26
218.335
218.77
237.336
223.467
235.832
228.6
241.602
242.374
214.529
218.455
218.502
244.631
222.653
228.009
220.013
234.321
229.669
219.071
227.47
235.715
219.304
230.586
219.707
226.647
215.968
219.185
219.763
232.56
238.988
232.297
235.031
221.207
218.575
235.559
238.989
231.872
229.73
233.079
236.341
217.974
232.671
216.795
232.44
241.431
217.416
222.184
236.879
218.911
225.384
220.282
240.847
218.467
229.94
214.27
234.459
219.791
217.616
219.782
216.711
237.872
217.823
236.97
213.303
218.713
216.363
234.034
224.065
235.733
220.863
209.924
228.581
231.054
221.911
218.135
218.248
231.771
220.651
219.398
220.079
227.894
233.677
229.613
245.605
215.765
231.276
236.096
223.002
214.311
224.497
221.174
246.586
220.437
229.215
233.312
221.887
231.715
219.947
239.453
236.545
224.852
238.045
217.533
245.132
228.406
235.325
235.533
246.779
217.303
234.343
239.895
228.186
230.738
222.675
237.322
232.974
234.629
217.565
237.832
219.706
233.749
236.817
222.353
217.076
228.666
236.017
221.426
239.486
223.155
233.019
228.035
220.428
237.257
242.698
222.158
230.318
215.866
219.573
218.744
228.832
240.526
220.625
241.092
246.255
242.477
222.548
219.034
218.61
218.54
230.504
223.893
226.364
225.263
230.076
233.928
225.004
222.84
234.764
240.69
216.894
225.444
220.285
228.239
218.073
239.894
234.547
224.182
219.466
231.661
232.321
230.31
235.413
217.791
232.686
220.048
220.202
235.082
234.888
242.148
239.987
220.578
230.213
237.053
220.295
222.637
222.159
218.226
240.074
219.235
221.017
237.844
222.854
238.555
240.612
236.798
221.051
231.044
218.358
215.352
218.25
237.749
244.654
218.473
236.073
218.998
219.334
219.89
240.422
227.433
219.804
226.752
236.508
236.238
220.048
217.859
240.77
215.819
233.925
217.479
236.761
234.59
221.363
233.57
242.13
218.178
230.551
228.585
237.956
226.179
241.608
244.119
240.402
213.185
236.261
231.004
219.127
237.073
215.298
220.859
221.413
217.938
221.796
219.73
220.583
238.898
224.757
237.598
218.267
226.64
234.293
238.368
228.637
231.284
220.29
219.925
215.549
224.376
227.47
217.04
237.022
219.394
219.363
228.634
219.212
239.638
236.551
227.027
234.588
234.331
245.4
219.304
220.878
219.479
239.428
228.418
221
250.182
234.383
218.166
235.157
225.387
220.378
234.985
221.46
239.568
227.836
234.413
219.671
222.178
220.544
219.746
220.529
226.934
227.401
217.55
220.482
226.525
220.357
223.605
230.129
220.782
222.583
234.39
219.796
220.621
230.886
218.53
237.113
244.815
233.045
233.994
224.015
221.644
219.213
239.907
226.192
229.606
219.813
230.145
220.296
225.115
221.142
219.591
234.166
231.91
229.292
216.989
215.49
218.656
217.081
218.974
240.399
230.879
242.093
239.704
240.556
250.761
227.947
233.256
218.773
241.657
238.844
228.977
223.946
223.666
239.603
225.218
216.471
220.679
232.63
214.618
235.514
231.921
216.98
219.689
219.192
217.239
220.084
219.368
217.623
217.341
241.635
217.901
231.421
239.805
220.017
218.824
233.32
242.043
219.875
224.816
220.5
237.221
223.274
227.063
228.667
230.398
227.89
233.898
230.784
217.991
231.16
231.394
218.94
245.276
219.384
220.07
219.92
237.018
244.009
218.051
240.318
216.245
233.634
239.036
221.009
225.551
219.519
222.208
236.057
219.422
219.539
217.666
229.623
231.739
240.917
219.045
220.084
236.304
226.099
225.592
220.828
235.804
238.876
227.427
221.332
238.875
216.388
227.227
231.582
239.817
238.409
237.911
238.247
224.114
227.799
229.539
220.232
213.35
227.898
218.69
220.851
224.665
217.315
240.862
233.942
234.308
223.009
224.721
240.065
232.721
237.457
230.374
232.717
236.274
241.761
237.987
226.662
236.1
232.683
225.002
219.597
220.406
235.731
218.386
240.746
237.724
219.983
232.537
239.989
221.335
233.478
220.006
225.801
231.818
237.119
235.93
222.659
225.055
227.261
237.963
235.395
222.951
223.29
232.96
224.856
242.068
243.25
225.81
218.606
243.658
222.457
213.514
219.242
226.166
233.621
229.467
223.021
217.921
232.505
220.339
228.601
219.945
218.878
240.086
235.947
246.118
245.444
236.6
251.127
218.313
233.702
231.779
243.427
233.466
220.556
236.775
225.76
217.861
231.783
219.411
226.375
220.402
247.424
235.093
217.478
225.654
222.719
219.781
236.392
220.453
241.933
230.076
233.685
222.011
231.684
246.932
222.444
219.934
219.694
230.92
236.814
240.775
223.171
220.054
223.932
219.915
233.467
230.555
231.577
237.88
220.201
216.425
226.262
218.991
232.853
230.498
222.401
246.712
223.331
213.418
220.017
217.218
237.715
230.736
223.272
219.446
216.912
235.324
219.159
226.95
245.612
222.612
219.021
241.204
220.539
233.636
217.596
219.205
240.054
238.051
213.46
221.152
239.603
235.196
214.108
234.289
238.956
228.766
228.609
222.712
220.814
229.362
220.409
224.537
220.442
228.951
220.803
220.064
219.896
226.492
222.539
225.541
217.072
242.018
237.141
219.22
216.988
221.179
224.251
219.464
227.561
234.921
217.483
224.265
226.763
226.645
218.855
219.893
232.081
233.902
218.911
243.164
219.523
237.051
218.754
235.509
230.561
236.784
218.518
241.493
219.065
224.943
230.694
238.726
239
217.754
218.867
225.511
220.358
224.089
234.334
232.902
242.661
237.948
221.402
234.763
214.359
220.863
230.504
235.367
216.615
234.93
247.536
237.744
222.315
219.418
218.096
219.034
246.855
217.778
236.738
217.005
233.763
247.369
228.155
220.682
232.653
218.876
215.983
219.819
228.544
220.27
214.239
220.248
224.041
220.421
235.437
220.254
219.995
220.761
243.313
237.89
219.171
230.678
230.841
221.344
220.717
230.158
219.385
218.126
219.238
220.592
238.586
228.402
235.359
237.644
219.456
234.75
220.05
228.747
235.189
241.229
233.672
220.213
217.64
219.592
239.09
242.694
233.223
234.017
219.655
222.948
226.154
220.356
228.24
219.215
218.58
222.639
231.961
218.981
228.721
223.528
238.723
248.129
218.734
216.57
234.787
239.198
227.404
244.974
240.413
236.772
233.165
241.484
232.47
225.661
241.701
221.799
219.731
234.792
240.966
230.471
244.591
245.382
238.455
227.459
237.773
221.199
221.912
222.326
241.347
233.741
219.313
223.405
218.414
231.632
220.105
235.267
242.123
217.274
232.183
230.298
218.477
217.859
245.216
232.084
242.891
216.599
223.248
226.377
236.631
229.082
244.082
230.592
221.554
233.919
220.341
225.132
234.635
242.708
220.486
246.364
239.385
220.759
235.642
238.964
220.206
219.469
226.085
221.012
238.515
219.574
238.622
219.978
239.509
249.806
235.25
241.602
218.325
223.518
242.574
239.348
222.995
217.985
239.144
218.323
234.286
220.489
228.875
228.886
236.225
213.916
237.769
222.785
238.983
218.452
220.854
219.603
221.055
236.28
220.391
218.963
217.25
231.673
228.632
237.04
225.24
227.064
237.457
220.084
221.562
218.83
238.902
228.032
219.884
235.022
227.018
220.117
227.634
220.543
230.277
219.05
226.624
215.017
228.039
227.441
218.566
218.842
234.903
227.955
229.379
230.56
244.495
230.642
232.573
218.426
235.769
217.383
236.434
231.327
230.299
231.919
231.499
231.18
244.358
231.597
240.086
235.252
237.383
219.408
219.884
216.596
219.413
235.597
221.003
239.036
241.535
225.389
216.915
229.777
236.992
219.182
216.749
219.198
235.8
223.709
235.24
222.145
222.914
220.281
233.957
227.779
238.36
220.461
235.89
238.433
217.181
231.183
233.059
235.517
233.498
218.252
237.763
233.506
226.493
219.542
220.968
227.068
235.152
219.866
232.823
214.43
219.184
237.939
220.698
226.985
232.488
247.961
224.782
220.781
230.307
236.848
237.363
218.859
220.602
230.286
250.179
214.413
215.354
236.301
240.514
223.563
236.808
224.367
230.251
223.279
239.321
230.231
237.642
220.826
226.091
231.464
218.48
219.809
237.646
238.725
220.475
218.982
218.741
220.075
244.927
237.509
219.555
222.884
219.95
225.5
221.218
217.483
220.354
244.093
222.04
234.247
218.114
220
241.334
219.722
228.512
217.471
218.26
221.697
236.454
231.972
214.142
227.528
218.367
220.291
217.008
237.654
227.794
218.958
218.921
232.225
239.571
219.519
228.631
235.664
220.152
220.799
234.335
234.763
229.699
244.109
224.454
230.724
219.383
234.418
239.739
245.034
217.811
220.125
243.203
216.19
230.364
224.016
216.126
216.614
213.865
242.298
218.451
233.967
219.264
225.856
237.109
234.352
246.563
249.659
222.288
218.216
224.979
220.401
228.751
233.62
231.295
238.931
218.55
233.882
217.786
229.877
229.612
225.06
226.693
219.695
221.453
238.63
226.887
216.797
220.155
222.468
218.288
227.42
217.013
240.712
220.129
224.79
236.132
228.964
219.726
224.955
237.452
242.533
237.791
217.73
236.502
218.276
236.055
219.43
234.508
223.584
227.999
217.386
219.021
223.979
222.727
228.636
228.551
220.24
215.193
226.161
222.428
230.478
222.549
218.613
218.864
228.917
227.762
238.615
223.573
232.111
231.159
228.623
232.378
235.361
227.985
239.541
230.286
239.422
219.708
237.988
228.371
233.61
225.775
239.067
237.775
220.389
225.261
238.57
232.071
231.908
222.191
236.693
234.948
218.229
236.15
221.007
237.005
239.102
240.942
219.058
215.283
217.173
235.541
219.055
227.119
217.993
221.96
219.323
219.363
247.273
225.13
219.334
219.382
218.859
225.294
240.976
234.773
218.673
216.303
224.44
226.478
231.794
232.034
221.924
220.024
218.115
229.679
216.969
234.305
234.574
228.033
220.586
218.975
241.133
249.101
219.819
219.716
244.459
220.423
238.274
222.757
246.784
237.817
219.96
228.974
244.304
235.168
219.624
235.362
219.188
230.486
237.11
227.296
219.12
221.413
232.889
217.627
237.527
235.887
220.884
242.859
228.902
215.051
219.704
217.194
224.917
221.86
231.152
219.443
233.822
229.696
230.328
220.231
233.604
219.451
227.395
219.525
248.585
227.115
220.537
219.1
219.267
242.49
242.637
218.935
220.25
233.267
233.266
237.989
222.242
220.779
225.986
225.577
237.666
239.36
220.413
219.625
218.657
234.126
222.716
246.441
220.319
243.454
230.51
229.034
227.912
235.081
222.732
243.026
213.576
232.907
230.682
218.773
226.294
229.647
243.562
231.482
244.134
236.363
228
218.434
220.265
240.673
241.571
224.402
238.156
214.119
227.137
238.154
218.663
237.048
230.358
235.388
229.814
218.419
226.554
240.389
239.348
220.525
226.276
220.882
219.265
227.097
219.344
235.271
225.632
220.249
243.174
231.093
220.169
237.666
218.092
233.971
235.151
217.37
240.376
234.293
222.442
219.769
224.254
216.689
232.815
235.545
219.407
239.428
218.18
243.689
220.208
220.562
240.932
237.884
220.867
231.979
230.463
219.325
250.092
233.58
217.674
234.8
224.891
219.322
225.431
229.655
216.602
225.998
219.936
229.592
239.953
226.886
248.198
230.161
238.394
225.75
238.9
232.99
213.501
236.285
230.85
228.996
236.061
224.195
221.845
243.951
232.228
234.663
220.686
236.678
239.558
234.67
236.186
231.567
218.636
217.591
219.186
219.021
225.209
229.617
228.289
219.125
219.301
219.14
231.92
231.095
223.31
230.293
219.207
232.46
227.541
228.008
219.151
229.57
229.968
229.121
231.771
232.126
235.331
219.807
216.644
224.472
224.128
219.832
238.574
227.465
219.734
226.425
240.557
238.526
230.191
217.937
228.399
234.456
228.607
247.956
224.987
220.191
217.688
243.333
218.882
214.592
226.249
239.459
239.256
239.427
230.238
227.031
220.457
227.253
230.42
226.019
238.596
235.297
236.816
242.821
228.817
219.115
223.56
227.814
223.806
245.9
233.024
218.624
238.519
238.625
241.911
219.947
218.891
224.705
222.433
217.881
234.111
222.471
238.545
214.889
220.182
224.861
218.351
215.457
234.873
234.163
237.899
232.968
222.684
242.25
218.229
226.086
224.027
244.124
219.352
243.056
231.521
236.311
230.069
233.681
222.477
227.965
227.218
226.989
227.948
222.027
233.845
220.349
220.563
234.932
241.645
232.246
220.626
225.443
218.792
236.638
239.766
232.692
226.372
233.612
221.4
229.779
219.388
220.383
227.538
219.978
226.112
234.098
217.603
224.63
215.578
229.396
220.158
227.398
219.853
226.417
243.244
215.21
213.763
242.512
220.713
220.286
236.561
231.839
248.197
240.486
222.089
237.432
219.652
237.327
225.852
230.925
223.747
221.637
233.855
223.401
241.662
220.672
220.538
244.167
234.875
230.536
219.177
217.971
218.724
218.264
235.031
235.406
229.008
238.354
231.39
220.668
218.992
234.272
233.629
219.435
240.619
228.597
218.212
234.387
220.844
220.214
237.56
230.941
242.641
222.376
236.349
225.796
226.124
232.274
231.446
234.108
239.594
232.841
241.597
220.093
219.527
231.638
236.97
237.664
226.912
239.15
215.205
217.148
231.122
233.577
227.546
224.359
233.734
221.014
220.542
224.855
220.148
234.375
217.327
229.098
230.132
219.905
216.72
219.585
227.52
221.971
219.311
231.253
228.632
240.631
217.527
233.93
239.16
225.658
217.996
219.935
222.866
241.499
230.871
226.779
239.618
228.562
238.404
230.504
231.182
227.66
228.676
233.453
236.328
216.006
218.775
225.075
220.846
220.697
215.827
223.168
225.231
236.71
235.252
233.164
227.496
217.443
245.164
225.497
230.17
221.235
233.933
217.589
228.755
223.859
220.449
228.738
220.339
241.351
216.509
219.684
226.753
237.179
219.94
245.172
218.508
228.601
217.626
227.323
240.911
235.728
237.907
226.391
226.748
230.409
219.157
216.195
232.431
236.517
233.574
227.812
237.181
228.609
233.616
238.216
222.629
238.117
226.84
239.983
228.99
216.026
229.808
237.437
222.746
220.25
224.469
228.012
234.651
227.191
224.434
244.489
242.313
237.989
220.438
228.387
234.836
239.901
212.63
236.958
222.191
237.931
243.833
238.885
232.419
213.616
218.88
234.498
217.935
238.547
236.311
238.545
219.401
229.455
217.157
216.068
239.253
240.228
230.341
237.424
217.333
242.049
225.742
230.69
222.367
226.51
219.998
224.859
227.829
219.439
237.452
219.401
233.921
218.648
218.465
231.235
218.646
239.662
218.4
235.622
251.214
236.687
235.233
249.64
224.258
235.156
219.322
228.489
229.457
227.391
220.462
219.801
228.96
229.555
237.305
240.212
228.665
229.101
218.998
218.39
245.871
216.775
225.219
239.046
220.382
221.32
232.283
223.138
244.096
238.048
233.059
220.863
239.196
228.833
226.906
231.102
232.037
222.24
233.219
222.678
215.527
213.282
228.391
235.278
216.333
220.184
220.919
234.825
222.421
244.63
232.092
234.776
220.646
233.547
230.894
225.824
239.525
224.576
220.2
238.111
219.016
225.132
237.312
228.789
223.316
215.573
220.406
239.605
228.182
232.827
219.558
218.684
237.982
221.517
237.895
221.814
237.859
220.93
225.479
238.909
224.457
246.533
235.531
230.507
218.224
223.493
247.763
237.438
213.365
232.477
222.98
235.115
218.555
234.311
219.379
229.512
237.002
235.552
223.013
217.202
215.184
220.52
236.954
220.543
228.871
239.626
217.412
223.675
224.398
245.109
218.835
219.773
229.715
240.236
234.296
235.06
235.789
219.207
236.362
225.008
227.964
222.653
219.542
243.687
219.987
219.892
234.92
230.762
222.45
233.242
226.12
217.604
223.447
218.889
229.717
217.474
219.339
244.956
234.08
232.986
243.705
222.626
232.085
220.088
219.764
222.114
218.318
222.059
237.445
232.15
239.12
219.428
223.788
224.327
223.21
238.089
221.868
220.277
227.881
217.999
227.09
241.057
222.02
219.895
235.564
218.279
235.854
235.699
221.07
218.247
236.499
223.768
235.157
221.698
235.067
241.027
226.736
236.163
226.64
229.798
234.867
218.645
240.41
231.611
213.95
239.407
243.741
235.312
236.729
220.811
234.229
219.96
221.203
220.105
226.622
243.242
221.923
220.065
241.118
238.457
226.711
242.007
218.77
238.396
220.798
227.553
226.507
240.228
241.434
229.819
214.408
230.373
235.482
216.954
226.137
220.429
232.442
224.784
229.007
233.559
232.072
227.607
245.029
230.271
217.019
218.484
223.209
239.087
221.178
227.109
231.316
240.583
236.498
219.444
231.805
220.94
219.865
229.333
242.216
229.914
231.559
234.947
229.419
225.066
218.1
235.059
243.622
225.286
236.284
219.04
219.725
225.288
234.564
214.058
232.455
218.549
242.639
235.953
219.264
233.454
240.384
223.046
219.269
217.984
219.278
222.94
229.235
242.228
229.112
220.45
231.885
236.077
230.186
237.689
226.92
220.114
243.101
214.221
227.511
233.5
219.194
239.207
234.345
213.927
223.084
243.951
229.041
219.548
219.408
225.502
232.521
229.274
235.139
234.578
218.714
221.098
235.168
232.385
218.879
224.289
216.917
219.608
218.449
215.738
241.608
232.938
224.142
243.456
225.247
233.376
239.212
219.156
237.33
222.825
233.412
228.152
245.143
239.799
217.292
226.178
234.517
221.857
236.387
219.076
234.217
228.914
218.887
226.23
223.054
231.265
220.427
236.784
238.056
233.072
218.639
232.893
234.843
243.945
219.049
223.021
228.044
248.029
220.588
232.472
238.649
221.261
218.892
219.683
221.64
235.9
242.231
217.72
234.533
220.875
235.566
236.435
238.518
213.181
227.729
219.732
230.511
240.628
227.327
223.818
237.085
230.199
231.142
230.184
232.144
219.373
220.079
218.277
218.101
233.089
234.643
220.444
222.658
236.917
231.387
220.386
235.031
220.225
238.721
220.368
228.099
245.86
238.336
219.79
238.49
236.289
222.079
239.143
244.287
217.045
220.163
219.711
231.821
217.801
236.851
244.063
218.983
238
237.384
219.545
222.693
223.868
243.123
229.089
230.912
228.753
222.798
218.56
233.428
221.731
236.809
236.55
229.216
218.753
235.993
220.004
235.445
232.958
220.311
238.486
219.514
220.186
229.929
232.592
218.807
232.763
224.8
219.683
240.112
224.594
223.352
242.991
219.637
233.084
221.755
218.033
224.934
221.084
217.586
219.706
237.021
215.738
223.309
220.988
220.866
233.687
236.157
220.45
218.96
216.978
222.146
233.961
230.137
222.315
229.069
219.789
219.286
219.229
231.89
220.216
236.576
225.152
237.396
213.096
220.352
236.269
213.215
219.524
235.805
219.919
217.569
232.443
237.098
234.241
225.92
240.559
219.432
234.55
220.488
217.9
229.202
217.839
219.971
220.753
226.128
230.677
218.546
222.042
224.336
233.549
219.474
236.733
220.6
226.377
218.157
226.978
232.432
235.378
217.1
230.904
229.573
241.409
232.699
222.194
229.538
229.593
218.482
226.494
246.584
234.856
223.211
220.134
224.211
223.607
222.758
234.175
241.467
233.653
233.435
223.978
242.53
218.663
220.77
237.797
230.856
231.212
220.008
234.983
226.349
214.864
229.061