# vtk DataFile Version 3.0
vtk output
ASCII
DATASET POLYDATA
POINTS 10000 float
-43.4951 -42.1839 8.68102
-41.5903 -38.8596 12.3848
-41.8285 -40.6757 10.7249
-46.3113 -38.6852 14.9552
-41.0742 -38.8067 11.2839
-45.7173 -39.0669 14.2846
-42.2725 -40.9892 9.53195
-41.6432 -38.4383 11.138
-42.1561 -38.4279 11.1389
-42.7975 -42.736 10.034
-42.7998 -41.9476 9.30056
-41.8517 -41.7801 9.94643
-45.9863 -39.3692 14.5746
-40.8657 -37.9773 12.0792
-42.0513 -38.2803 13.3249
-40.6253 -37.633 11.1206
-42.804 -42.6373 9.01798
-44.7017 -38.8043 14.1852
-40.829 -38.5003 11.4051
-41.3213 -37.6617 11.8567
-46.6687 -43.2325 7.96299
-45.4966 -39.2734 14.4223
-41.9175 -38.4649 12.6223
-43.5869 -42.1962 8.74829
-42.8708 -42.6711 10.0992
-42.7781 -41.895 8.60918
-45.0896 -43.3104 8.47608
-47.783 -38.9368 15.4283
-43.4272 -41.7094 9.74619
-41.2111 -38.8451 12.5829
-45.2488 -42.7857 8.02423
-41.2252 -38.5642 11.1831
-43.4597 -41.9961 9.5128
-42.5634 -41.0824 9.56742
-40.7268 -37.1625 10.9655
-41.7649 -38.8431 12.6242
-42.2888 -41.9075 9.93762
-41.3914 -39.3943 11.9943
-40.7184 -39.151 11.3729
-42.1393 -39.6606 12.8261
-44.6949 -43.7582 8.43047
-44.1543 -42.3095 8.63632
-41.6467 -39.8742 11.8981
-42.0431 -39.7909 11.5525
-41.0831 -40.1411 11.0194
-41.3355 -40.9199 10.8247
-41.829 -39.9158 10.7058
-42.0896 -40.1898 10.7898
-40.8859 -36.9417 11.3917
-44.4171 -42.5955 8.18978
-40.8268 -38.2876 12.5969
-43.0175 -42.3856 10.1641
-42.4438 -41.4067 9.97657
-43.8952 -42.7678 8.84599
-41.8055 -38.9706 12.7424
-43.6976 -43.342 9.41276
-43.8191 -38.6947 13.9882
-43.3988 -42.0851 8.50095
-43.1069 -42.9861 9.75147
-40.6747 -37.2372 11.1089
-42.2365 -42.1058 9.93671
-43.1721 -41.4224 9.94528
-42.6571 -40.5725 8.96693
-41.8945 -41.1397 10.6764
-42.4043 -41.1206 9.96509
-43.0658 -42.4298 9.22444
-47.8568 -38.9061 15.6433
-41.8771 -40.8682 10.509
-51.8559 -38.9439 18.1629
-46.7355 -39.43 14.8796
-42.2193 -38.6144 13.3437
-42.7631 -42.1014 8.97995
-41.9063 -39.036 13.2923
-42.5644 -42.5302 9.20482
-46.7019 -38.8955 14.9625
-45.9952 -43.7359 7.98161
-40.7022 -38.8311 11.6062
-46.1643 -42.2475 7.96022
-42.1338 -39.2035 11.7667
-47.4878 -43.4044 7.57679
-42.4847 -42.0921 8.5645
-46.2503 -43.227 7.66174
-42.357 -41.6471 10.131
-41.5552 -39.307 12.7956
-40.8762 -37.4179 10.9791
-44.1488 -38.6748 13.8939
-42.6066 -42.8533 10.105
-41.9592 -40.1873 10.5712
-44.2847 -43.1804 8.74528
-45.0506 -39.2057 14.2822
-43.8717 -41.6284 8.60975
-43.6733 -42.015 9.83294
-41.2489 -39.3248 12.0624
-53.4091 -39.0823 19.1808
-44.1578 -42.8158 9.55123
-42.2266 -41.0517 10.1698
-44.2899 -42.5005 8.07295
-45.1399 -43.8648 8.59506
-40.9645 -37.3293 11.1643
-44.408 -42.417 8.29366
-41.8865 -42.4485 9.50299
-42.2539 -42.4608 9.40189
-43.4334 -42.4334 8.71535
-41.6505 -39.3032 11.9489
-43.9425 -43.9576 9.07288
-42.6333 -43.8232 9.21718
-41.6958 -38.6764 13.0527
-41.2278 -38.4859 11.2157
-42.3607 -39.6377 11.7716
-40.9372 -38.3368 12.7012
-42.169 -42.387 10.1115
-41.226 -37.7139 11.7265
-40.4787 -37.8494 12.3344
-42.0777 -39.1668 12.0818
-42.4333 -41.9463 10.1545
-41.265 -39.171 10.7712
-43.5533 -43.2576 8.57692
-42.0625 -41.9122 10.3718
-41.2103 -40.6953 9.22819
-42.207 -40.4374 10.1144
-42.8382 -38.0936 13.5591
-48.5244 -39.2421 15.5188
-42.0518 -40.9986 10.8198
-41.3016 -37.7322 11.5529
-42.5327 -41.7007 9.97902
-44.4183 -43.5497 8.49955
-41.2859 -39.168 11.3517
-45.493 -39.37 14.3436
-44.4032 -41.3009 9.71451
-43.5272 -41.6792 10.177
-41.3446 -39.4756 10.5356
-45.2352 -43.9829 8.02144
-43.1326 -41.6185 9.44849
-41.3551 -39.3178 11.5517
-41.7368 -39.5954 10.85
-43.3867 -42.9201 8.77488
-42.5352 -42.3065 10.4023
-40.9716 -38.116 11.1969
-41.4724 -38.7435 11.7253
-42.1215 -41.6274 9.48334
-41.4735 -41.2431 10.7862
-48.9691 -43.5619 7.88755
-41.8414 -38.6686 13.0506
-48.231 -39.1754 16.6669
-42.7676 -40.6711 10.359
-45.8778 -39.1977 14.6012
-42.7402 -41.8578 9.31931
-44.1818 -43.4869 8.56882
-43.1975 -41.8404 8.59512
-42.6629 -43.0023 8.8461
-41.5157 -38.943 12.5606
-45.8014 -43.0182 7.80632
-48.6513 -42.7903 7.0178
-47.6642 -38.7445 15.5202
-40.5691 -36.7531 11.3051
-42.1934 -40.0101 10.5424
-44.7381 -42.1301 8.30416
-41.6735 -40.5359 10.4639
-42.5062 -40.5428 10.4672
-40.811 -36.6614 11.1964
-42.6112 -41.1871 9.44404
-41.1066 -39.3106 11.5547
-45.9419 -43.3137 8.42355
-42.6152 -39.3476 12.25
-45.259 -39.203 14.0375
-46.9595 -39.3893 15.0229
-42.0624 -41.2604 9.42625
-43.8109 -42.8314 8.8085
-41.865 -41.4121 11.2747
-43.6868 -43.3288 8.75124
-42.1768 -40.1529 10.2313
-41.6932 -43.1573 9.72442
-48.115 -39.1789 15.6488
-49.7374 -39.4621 16.933
-42.1256 -42.0521 10.6704
-41.6939 -39.3817 11.8942
-42.6173 -42.3343 9.38602
-42.5007 -40.9803 10.258
-41.7618 -41.6947 10.1422
-42.8702 -42.3003 9.5823
-42.0829 -40.6049 10.5359
-41.8136 -39.2102 10.0059
-42.8971 -41.9055 9.51827
-43.5389 -42.3854 9.20784
-42.6261 -41.0617 10.3618
-41.5283 -38.5233 11.97
-42.4772 -41.6226 10.2864
-40.754 -37.7534 11.5943
-41.3715 -38.3724 13.0656
-43.1983 -40.8573 10.2288
-41.0527 -40.9776 10.3882
-41.4128 -38.5417 10.8579
-42.1519 -40.3879 10.7131
-40.773 -38.7286 12.0648
-48.7167 -39.344 15.9518
-42.1644 -40.3851 10.653
-49.1561 -43.76 7.00621
-44.6148 -38.7804 14.0236
-42.1265 -39.8906 12.2959
-42.4635 -41.2563 10.0287
-42.6838 -41.7584 9.44351
-41.3975 -40.1428 12.2557
-43.7975 -42.567 8.69434
-45.9355 -43.6156 7.78962
-41.3621 -37.5619 12.0188
-40.2315 -37.165 11.1285
-42.5797 -41.7712 9.26053
-42.6592 -40.5279 9.93488
-42.9469 -41.2742 9.72401
-49.4894 -39.2744 16.1494
-43.3641 -41.179 8.2155
-45.6322 -43.356 7.84697
-42.4897 -41.962 9.63327
-41.9623 -41.8275 9.69063
-42.0853 -42.124 9.09142
-44.0188 -43.0272 8.94056
-41.6869 -39.995 9.92337
-42.7181 -42.0838 10.5416
-41.4658 -40.6395 11.3273
-44.1904 -43.6745 8.69643
-40.9317 -38.0983 11.6675
-40.285 -37.2391 11.0629
-43.0645 -43.3382 9.16208
-41.1677 -39.7613 10.9052
-41.4123 -40.1159 10.7536
-42.0535 -41.6222 9.37748
-45.0405 -42.8434 8.04097
-42.5722 -41.7149 9.6559
-42.7683 -41.8386 10.1201
-41.4115 -39.6032 10.8072
-41.4638 -38.5828 12.9985
-41.7414 -40.2667 10.4112
-42.2677 -42.7318 10.177
-42.9638 -43.6104 9.28227
-42.3731 -42.0113 9.73443
-44.2667 -42.9001 9.00549
-42.8861 -41.8966 10.1756
-41.4396 -39.7651 12.5644
-42.071 -41.914 9.63418
-43.1436 -42.5074 9.40664
-41.9289 -39.3999 11.0879
-41.5865 -39.9573 11.0972
-43.1192 -42.7764 9.31821
-41.1191 -37.9481 12.2355
-40.7242 -39.0523 11.2291
-46.0606 -43.3408 7.57928
-43.2256 -41.6812 9.53604
-41.5581 -38.8308 10.8672
-43.726 -41.3462 8.36577
-42.5127 -41.6114 9.85607
-42.3506 -41.4969 10.7417
-43.2848 -42.6983 8.52603
-42.3219 -41.7971 10.9769
-42.1105 -39.0186 11.6051
-43.3491 -43.2924 8.13229
-45.7873 -42.7351 7.95397
-43.0412 -41.5941 9.99772
-42.8764 -38.6647 13.5887
-48.3072 -39.3859 15.8979
-42.7988 -42.8143 9.21231
-42.5221 -42.3533 9.70775
-43.1373 -40.7748 10.2179
-46.1461 -43.155 8.06879
-43.8258 -38.5616 13.711
-42.1412 -37.5763 11.0182
-42.4631 -42.0825 10.1592
-44.5164 -42.9068 8.41599
-41.9658 -39.1283 12.3851
-47.1293 -44.4177 7.74179
-42.8645 -41.8228 9.12647
-44.8756 -42.145 8.65798
-43.3704 -38.3668 13.7214
-41.7248 -40.791 9.65837
-41.9299 -38.2362 13.2151
-42.1205 -39.1773 12.6139
-41.5442 -40.9257 9.98138
-42.2661 -42.8154 9.36643
-41.5017 -38.4391 11.5287
-47.406 -43.4171 7.54239
-42.5251 -42.2482 9.80546
-42.3547 -41.9158 10.2075
-42.4046 -41.4398 9.30654
-42.9445 -42.4573 8.46229
-52.1196 -39.0593 18.5445
-43.2512 -41.1583 10.3253
-40.7637 -39.9491 11.0264
-45.921 -38.8299 14.1177
-40.7327 -37.5495 11.128
-43.1009 -42.0445 9.03178
-41.4348 -37.9194 10.7416
-42.0876 -40.8543 10.4755
-43.404 -41.3993 9.67991
-41.0295 -38.0363 11.6132
-43.6195 -38.2486 13.9819
-42.1953 -41.1963 10.1378
-44.4844 -43.3953 8.58598
-43.0024 -42.2234 9.69547
-43.7232 -42.7975 8.55357
-42.705 -40.7972 9.89345
-41.6968 -39.1267 10.9648
-47.6306 -43.0286 7.74559
-41.833 -38.1721 13.0475
-40.9803 -38.5916 11.8969
-47.0937 -38.8884 15.2128
-42.1272 -39.0303 12.3738
-44.0724 -38.3965 13.9949
-40.0554 -35.7503 10.918
-42.2324 -42.0974 9.80253
-41.3692 -38.8477 12.0064
-44.9295 -44.3679 8.5067
-45.9313 -43.2333 7.89632
-44.4732 -38.6189 14.2341
-43.7927 -39.1074 13.7278
-42.1677 -41.1386 11.0493
-43.8298 -41.8767 10.4598
-41.7598 -38.6452 10.9843
-40.7599 -37.8078 11.9204
-41.9607 -37.6358 13.2396
-42.7111 -41.5024 9.28578
-44.1368 -41.5295 10.0593
-42.4127 -41.4826 9.40819
-41.3266 -38.7768 12.6671
-41.0742 -38.9295 11.6351
-45.7535 -39.1574 14.4318
-43.3428 -41.5081 9.52414
-43.3184 -41.9088 10.3054
-44.5106 -43.0429 8.64461
-41.6854 -40.9021 10.4483
-43.8373 -42.1618 8.61501
-49.3972 -41.9441 6.53106
-50.4225 -38.8504 17.6333
-46.3386 -39.1133 14.8716
-40.9096 -39.2883 11.4865
-43.5686 -41.788 8.6121
-42.5129 -41.9509 10.369
-42.4855 -43.1924 9.36192
-42.6259 -38.3003 13.3206
-43.2326 -41.8268 9.83239
-44.6788 -44.1425 8.77174
-41.6472 -40.9416 11.4295
-43.4561 -41.8152 10.0238
-41.4176 -42.1647 9.11923
-41.2389 -37.9138 12.4013
-42.73 -41.5711 9.79497
-43.8093 -38.4974 14.0383
-42.507 -43.0956 9.72864
-49.4232 -39.5416 16.293
-44.8437 -38.8594 14.2087
-41.4014 -37.7957 12.9734
-42.3557 -41.6547 9.8905
-42.6316 -41.2854 9.46789
-42.7472 -40.6191 10.1183
-45.3978 -43.0477 8.02578
-41.6871 -39.3632 10.8899
-41.4489 -38.4021 12.308
-42.8153 -41.0478 9.65914
-42.8909 -41.491 9.4443
-43.4671 -42.5619 9.70007
-42.934 -42.0819 9.97016
-43.8726 -42.364 9.22851
-42.0805 -40.3949 9.96116
-50.2141 -35.2237 26.7428
-42.4295 -40.5407 9.91792
-46.8487 -38.7263 15.7345
-45.1998 -43.8967 7.83376
-43.6537 -42.6798 9.13172
-47.4839 -39.4374 15.789
-41.5104 -40.3499 10.9522
-42.8095 -41.3583 9.1965
-45.0652 -39.0419 14.4684
-42.3212 -39.9228 10.3004
-41.2622 -39.5005 12.3466
-43.4801 -41.8863 9.1638
-41.2764 -39.2199 11.7427
-44.2551 -43.1693 9.27378
-50.331 -38.9831 17.6345
-43.1809 -41.1558 9.86168
-42.0024 -38.7208 12.9806
-46.9358 -38.8712 15.1404
-40.9011 -37.4616 12.9211
-40.5946 -37.4048 11.5087
-44.1115 -42.6116 8.93551
-48.0095 -39.3203 15.4354
-42.7493 -42.7702 9.40133
-52.3627 -38.8687 18.6676
[...]
POINT_DATA 10000
SCALARS t float 1
LOOKUP_TABLE default
221.512
214.27
210.348
214.721
211.437
214.54
215.647
211.475
211.488
212.427
217.046
212.935
214.875
213.953
215.11
211.964
218.895
214.598
211.952
213.379
226.536
214.807
214.629
221.004
212.157
222.163
222.63
214.699
214.228
214.805
226.232
211.449
215.625
215.408
212.074
214.692
213.01
213.203
211.493
214.9
222.803
221.795
212.71
211.574
210.257
210.18
210.494
210.398
212.803
225.069
214.999
211.935
212.884
220.092
214.838
215.982
214.751
222.918
213.94
212.207
212.98
213.139
219.831
210.34
212.989
217.472
214.574
210.756
212.388
214.947
215.124
219.317
215.3
217.588
214.742
226.126
212.333
227.022
212.425
229.461
222.44
228.806
212.108
215.01
211.927
214.585
212.076
210.675
220.698
214.757
222.235
213.703
213.456
212.167
215.225
211.999
225.989
221.542
212.208
224.349
215.551
216.23
221.176
213.036
218.13
217.199
215.178
211.539
212.257
215.092
212.067
213.071
214.693
213.339
211.97
210.865
221.922
211.045
217.823
212.334
214.794
214.714
210.282
212.641
212.834
222.376
211.396
214.793
214.562
212.055
211.033
225.7
216.114
211.86
210.597
220.582
210.982
211.751
212.598
215.845
210.187
227.033
215.124
213.644
211.354
214.83
216.934
221.889
222.283
220.048
214.653
227.797
234.289
214.584
212.784
210.817
224.383
210.887
211.019
212.677
216.215
211.899
223.013
213.621
214.543
214.97
216.302
220.352
210.554
220.621
211.834
214
214.669
213.69
210.281
212.837
216.367
211.654
211.973
215.092
210.746
213.293
215.587
217.598
211.271
213.339
211.437
212.83
215.27
211.91
210.948
211.254
210.44
213.742
214.508
210.487
233.871
214.506
213.824
212.644
216.104
213.865
221.281
227.624
213.761
212.289
217.368
213.286
214.4
214.353
225.473
227.318
214.808
214.43
218.504
219.323
213.31
210.662
210.762
220.893
212.819
212.142
217.689
210.382
210.329
216.562
226.072
214.71
212.181
210.575
215.224
211.081
211.739
216.797
214.168
218.886
211.943
214.661
214.788
216.201
210.829
210.47
216.739
214.238
211.21
229.362
215.53
211.072
224.231
213.544
210.33
222.506
210.158
212.035
225.207
226.812
212.804
214.96
214.57
217.467
214.272
211.96
225.756
214.605
211.921
211.933
223.238
214.132
227.608
218.318
221.676
214.711
214.796
215.105
214.562
212.818
216.397
212.21
229.715
213.728
211.728
217.111
223.084
212.242
211.462
210.291
214.261
212.027
218.947
211.745
210.887
214.669
212.68
214.642
212.119
221.788
214.393
222.255
213.485
210.831
228.366
215.06
213.26
214.746
214.064
214.52
213.01
213.749
213.39
222.011
227.015
214.627
214.84
210.303
211.085
211.177
213.652
214.994
217.25
212.67
216.391
214.902
212.315
214.695
215.648
211.44
221.476
210.891
222.012
238.519
212.75
214.868
211.736
222.166
211.117
216.349
214.896
213.705
220.188
211.04
212.694
218.297
214.516
213.92
214.702
214.021
214.317
214.59
215.166
213.325
216.036
212.371
226.105
210.719
214.212
214.828
216.161
214.328
212.864
217.458
213.081
217.506
213.353
214.51
227.129
218.058
214.717
210.194
217.925
214.822
211.615
214.216
218.033
212.497
216.947
212.82
213.655
215.035
214.757
215.322
212.846
219.478
214.837
216.176
212.079
214.571
214.196
215.218
211.286
213.784
215.076
213.852
210.992
217.03
210.601
213.335
214.876
216.12
213.14
211.594
213.653
214.418
222.401
212.71
230.891
213.805
221.5
226.213
210.215
212.976
210.844
210.378
226.031
214.914
212.579
214.349
211.117
213.803
215.008
214.598
218.326
210.332
217.415
214.485
227.557
214.08
218.343
214.208
222.373
212.098
213.836
221.967
211.414
211.912
210.385
217.585
214.138
218.941
211.647
214.91
214.612
211.372
222.248
211.111
210.338
213.146
214.839
212.181
220.18
210.476
212.956
211.4
214.883
213.868
225.08
210.524
210.769
213.555
215.18
211.465
224.149
223.704
214.436
221.498
224.034
220.853
210.67
211.345
214.888
214.842
216.027
211.622
212.253
212.093
211.087
217.547
211.478
210.397
214.944
225.667
212.907
212.512
215.069
212.226
210.929
225.969
226.182
210.495
214.948
213.091
222.314
213.988
216.524
214.989
227.237
215.087
212.212
220.137
215.477
219.564
228.674
214.986
211.063
215.601
213.891
210.247
210.481
212.51
217.154
214.888
211.732
232.538
210.56
220.321
223.282
221.652
211.418
211.289
214.86
212.645
212.517
213.566
218.902
214.858
222.13
214.494
215.231
212.409
226.809
212.011
215.04
213.99
216.075
225.811
215.213
214.592
236.102
216.031
219.97
221.578
225.746
212.878
211.192
215.698
215.732
214.238
212.488
211.669
217.096
211.393
224.314
221.386
225.525
212.183
226.979
216.994
214.58
219.1
213.774
213.473
211.638
212.82
211.347
211.12
213.27
217.838
210.212
217.903
214.95
211.045
213.953
220.623
211.871
212.519
212.449
215.197
214.104
210.671
210.826
214.265
219.434
214.582
212.075
213.884
212.398
219.761
232.924
211.216
217.058
217.983
217.459
214.968
210.426
214.433
216.644
211.192
211.112
227.625
230.205
212.961
225.909
211.171
211.115
213.236
210.488
216.694
212.088
218.471
212.157
210.374
213.143
215.158
212.084
212.961
212.018
212.504
214.494
217.911
211.684
210.37
212.898
214.968
210.837
214.271
211.505
215.197
212.095
211.445
225.321
226.215
225.223
212.908
211.114
212.175
214.462
219.923
210.967
221.109
214.955
213.023
214.127
211.969
210.509
214.56
216.163
212.819
214.111
213.713
212.761
214.742
212.479
212.559
224.08
212.417
222.353
216.058
217.442
227.137
213.728
218.883
214.825
215.317
230.147
211.139
211.942
212.769
217.529
210.601
214.578
214.703
214.46
213.151
212.524
214.529
214.647
212.394
214.889
212.575
212.441
212.089
213.406
214.727
221.854
212.47
213.303
219.48
214.551
214.563
225.361
220.682
213.632
210.66
215.073
231.361
211.358
212.206
210.58
214.467
232.905
213.907
214.911
213.763
215.197
211.63
212.833
223.035
211.07
214.942
212.91
226.441
228.059
213.116
219.296
214.466
224.939
218.009
214.568
210.332
214.633
211.125
215.661
210.747
214.974
213.129
212.444
215.394
221.733
212.482
211.529
215.512
211.135
212.192
213.767
217.811
222.724
211.22
210.519
217.999
213.186
210.954
218.748
224.628
223.937
218.949
214.296
211.258
211.376
212.573
214.737
212.208
211.382
214.863
214.242
213.155
214.291
220.356
213.436
216.452
210.408
212.143
221.492
221.916
223.791
212.371
227.569
224.834
216.192
216.782
210.832
215.437
214.641
210.673
212.727
212.547
215.095
213.541
223.061
218.713
210.925
212.683
229.911
211.408
211.921
210.356
212.831
222.357
218.997
214.574
210.362
210.333
210.95
212.798
221.704
211.242
211.861
219.598
211.444
217.612
221.408
212.988
212.749
219.814
210.488
212.114
214.676
210.699
211.926
215.862
211.178
211.661
213.777
214.958
216.111
213.782
214.897
222.414
227.292
223.908
225.627
224.377
228.201
212.52
228.56
215.792
218.797
217.742
214.953
213.463
211.23
212.431
230.758
212.063
211.427
214.934
223.112
218.121
211.575
212.884
210.327
214.923
229.655
210.73
224.237
213.829
212.769
210.385
216.358
225.922
210.885
213.1
211.136
214.153
219.241
215.233
210.966
212.747
210.432
215.202
212.586
211.008
221.929
221.947
212.048
214.403
211.35
214.729
213.092
211.681
211.598
226.328
211.026
212.46
211.725
213.396
215.83
216.362
210.212
214.879
213.265
219.807
214.813
222.246
222.263
210.852
212.002
217.393
215.143
214.861
211.67
210.342
229.8
215.606
212.524
210.509
215.708
216.487
213.584
213.645
220.299
213.569
212.954
210.928
213.224
215.472
211.457
213.874
214.952
211.073
213.677
210.593
213.482
214.57
210.992
210.599
213.759
218.033
217.671
213.712
214.612
211.056
210.414
213.745
233.627
217.084
212.591
210.305
210.621
213.681
214.639
215.156
212.359
215.966
214.71
222.59
212.161
229.978
214.882
216.839
214.386
224.769
214.938
225.491
212.829
211.696
213.396
214.092
215.549
212.549
210.546
211.241
213.728
211.251
215.184
212.864
224.774
228.836
210.388
228.811
212.664
213.336
217.5
213.305
212.656
212.367
224.216
217.257
210.656
213.666
213.432
212.579
219.731
212.769
235.452
211.849
212.795
220.203
211.035
215.251
217.659
214.83
213.701
214.965
215.092
214.982
212.965
214.579
211.307
211.812
220.237
215.041
214.799
214.726
215.776
224.051
211.806
212.086
214.049
210.437
214.51
210.777
214.666
214.956
211.868
214.886
230.485
211.004
213.247
218.572
213.611
216.79
211.412
212.385
222.96
226.682
221.008
211.263
213.31
214.15
216.615
220.838
214.183
214.283
214.541
210.757
220.137
212.34
211.948
214.066
214.792
211.787
225.903
212.916
212.165
211.328
218.928
225.562
214.714
212.485
215.508
228.967
211.63
239.942
226.035
220.46
214.403
221.915
215.434
212.203
222.326
210.689
215.22
215.901
214.598
213.985
218.111
219.394
216.272
213.807
224.683
210.503
210.532
210.741
224.01
213.309
211.707
211.436
212.774
215.02
212.858
212.696
220.346
211.925
220.491
215.923
214.835
212.319
229.685
215.692
222.063
211.969
210.847
211.246
214.767
213.888
223.151
214.08
210.144
212.464
214.451
211.046
225.439
220.737
210.663
223.172
228.572
215.051
221.289
220.715
215.129
211.775
212.644
210.811
222.925
214.69
223.174
215.245
221.355
231.822
213.556
239.544
213.993
210.751
219.511
222.876
210.354
212.694
218.12
212.349
239.484
214.865
215.493
211.527
216.053
212.88
218.967
210.282
220.968
212.422
211.834
214.673
211.095
216.4
215.058
214.607
214.042
226.974
234.301
215.271
212.498
210.068
218.451
214.982
210.259
213.655
232.155
212.064
215.166
213.904
210.72
214.303
211.794
215.345
214.563
215.065
210.718
213.007
217.213
210.681
213.403
212.16
233.81
221.632
213.952
216.693
223.44
212.779
219.622
215.05
216.007
214.75
219.316
211.82
222.744
220.477
220.733
218.196
218.376
211.954
219.5
223.051
219.812
215.052
214.65
213.893
213.416
214.389
214.448
216.382
224.823
210.763
212.636
211.963
232.838
213.17
214.828
212.25
218.908
212.26
229.07
210.996
210.342
213.394
213.389
211.776
221.889
215.172
215.32
217.196
214.656
214.593
216.793
232.553
213.22
214.977
226.681
214.693
211.27
214.684
214.311
211.258
213.705
214.772
223.426
214.236
214.768
215.762
215.005
214.049
228.95
226.886
211.423
215.097
212.092
216.503
226.715
214.49
211.375
211.032
228.369
212.711
213.716
218.993
222.158
212.401
228.116
210.429
211.948
210.901
222.647
212.37
219.199
213.834
210.434
217.167
213.717
215.022
217.101
215.419
214.299
214.642
214.672
212.071
223.628
215.635
211.319
210.49
215.313
211.048
211.068
212.753
214.018
228.653
211.038
216.756
212.827
211.101
228.788
215.075
211.653
212.038
214.972
210.836
216.407
214.604
214.054
211.367
212.038
210.808
213.099
221.305
218.272
214.578
211.874
218.756
220.333
214.09
225.182
217.781
215.267
214.852
213.818
213.755
213.39
219.978
211.878
213.3
213.221
219.98
217.552
230.19
212.724
214.759
222.482
214.183
213.459
210.284
212.925
213.55
212.361
218.74
211.917
213.038
214.52
211.871
223.649
221.532
231.5
219.03
210.394
212.091
210.415
214.93
212.575
211.834
215.927
221.241
213.411
223.732
212.538
212.175
212.544
210.094
210.602
212.055
210.944
215.643
211.342
213.83
214.977
212.673
214.691
211.233
213.619
215.309
214.853
211.254
215.854
211.254
212.768
210.777
216.371
219.117
214.916
212.375
220.922
212.142
214.627
215.011
222.303
210.259
212.269
212.738
214.559
211.148
211.569
219.512
214.269
214.512
213.875
212.18
210.942
214.156
213.145
212.918
214.631
213.599
229.913
217.373
211.159
216.451
211.361
226.951
213.297
215.6
213.415
221.216
226.485
213.653
210.78
212.764
212.652
215.06
211.582
220.781
226.133
214.835
211.228
231.036
229.439
214.092
211.64
215.615
220.33
212.557
218.2
212.264
224.826
216.258
223.608
214.655
212.915
213.289
229.151
214.302
211.378
211.596
210.258
214.499
214.574
222.354
210.572
212.002
210.327
212.399
211.742
218.179
215.223
211.205
214.695
212.275
211.744
215.873
214.106
210.409
214.346
213.201
213.703
214.617
212.456
218.158
211.459
215.144
211.454
223.789
223.925
214.496
215.045
221.887
210.806
222.291
210.381
224.812
216.411
213.398
217.344
220.539
216.914
212.722
220.627
214.781
213.431
221.396
211.725
214.811
210.192
221.222
214.011
221.126
216.169
214.013
229.303
215.566
212.355
212.093
214.589
210.835
212.177
214.321
214.903
213.687
212.232
212.783
215.229
220.582
213.933
219.844
210.716
233.617
211.464
215.206
210.457
211.642
222.937
226.321
212.796
213.362
211.316
222.656
220.888
210.573
214.767
211.585
210.944
219.849
226.046
214.979
214.763
215.075
215.534
210.482
225.496
212.183
217.679
212.842
218.344
212.159
215.817
210.312
221.251
212.291
219.063
213.288
212.752
210.452
213.659
219.778
214.683
224.296
222.273
211.253
211.425
211.156
227.605
217.621
210.441
214.894
213.209
214.198
214.478
213.229
216.828
222.384
214.244
213.811
212.326
211.969
218.414
222.065
211.385
211.04
210.404
212.591
211.545
214.743
220.534
211.085
211.183
221.972
213.949
210.77
215.321
214.553
214.836
217.392
215.003
228.968
214.241
210.782
214.871
213.134
212.617
215.022
218.7
213.107
218.428
212.995
233.095
215.027
214.589
219.65
226.625
215.113
225.679
213.628
214.557
225.89
213.578
214.762
216.889
210.891
214.56
213.213
211.471
213.348
211.699
212.337
213.269
215.545
214.004
218.933
215.318
224.958
214.485
219.737
211.695
212.544
216.528
214.993
219.873
216.292
210.4
210.678
221.45
220.447
223.646
215.152
215.957
228.236
214.122
212.702
213.575
214.563
214.292
211.244
213.015
210.935
212.94
212.763
214.641
214.748
214.85
222.641
213.11
212.336
216.208
213.245
220.144
213.258
213.712
211.931
210.623
217.317
212.572
213.722
214.064
230.281
214.377
214.502
212.696
210.729
214.64
220.271
214.643
215.132
211.036
221.444
217.315
213.33
212.823
211.2
214.015
216.327
228.513
213.557
215.251
213.753
219.094
211.147
213.012
211.275
222.203
218.859
220.002
212.846
212.088
213.035
211.016
212.198
210.975
220.719
217.844
215.423
224.46
216.32
214.605
217.693
214.165
210.324
219.094
216.858
211.573
227.975
226.947
222.74
215.231
214.762
210.304
210.575
213.836
214.179
210.667
213.873
213.601
215.066
211.328
212.802
213.612
220.778
212.605
216.547
219.341
210.475
223.658
212.563
214.286
210.557
219.287
214.927
222.858
215.29
215.674
214.888
226.502
210.305
213.295
212.374
211.954
211.829
212.252
218.126
210.319
213.745
225.532
225.153
214.767
212.175
211.031
214.746
225.436
219.686
218.285
211.224
216.934
210.337
214.743
214.54
215.068
211.326
215.249
212.594
213.175
214.656
210.408
213.635
217.34
215.073
215.038
214.706
211.787
224.534
212.636
212.204
220.922
214.941
212.605
217.658
213.245
223.032
230.986
210.743
217.395
214.357
226.486
212.545
214.451
212.092
210.37
223.403
210.479
217.74
211.921
215.271
229.715
218.573
225.961
214.301
215.032
213.4
214.816
219.545
214.667
212.69
223.366
215.974
215.304
212.362
226.972
223.486
211.796
224.592
226.91
211.306
218.402
213.427
214.706
220.04
214.41
219.294
210.285
214.208
211.519
210.284
214.106
213.85
217.91
215.651
213.523
231.515
213.828
215.06
213.333
220.713
220.903
212.408
219.084
215.322
214.506
215.379
218.645
211.509
210.577
219.572
210.721
210.286
210.462
214.947
218.471
214.654
210.839
216.919
214.858
214.413
214.032
212.05
210.935
211.309
218.576
211.747
222.161
213.338
215.641
219.094
217.993
214.72
215.02
210.143
220.517
214.038
211.4
221.283
216.357
213.719
212.482
211.753
211.472
212.556
215.748
215.85
214.293
213.836
211.091
210.785
215.205
213.752
211.016
210.477
215.976
214.437
220.271
210.875
212.426
229.011
210.805
212.09
211.335
218.331
213.327
212.767
212.409
214.457
211.71
210.406
225.827
214.475
215.065
227.174
221.017
213.685
224.528
215.068
215.19
213.051
211.145
217.319
213.389
214.588
213.162
212.698
219.499
214.743
213.393
216.499
220.227
219.454
211.805
221.793
212.796
214.532
219.764
211.258
215.733
211.025
215.857
211.052
213.31
213.531
214.156
210.347
215.171
214.681
212.746
212.765
210.964
211.26
219.892
227.29
229.641
211.091
211.437
229.372
224.659
213.665
226.944
210.924
222.769
223.274
221.637
221.032
212.251
212.257
214.694
214.674
215.624
212.62
229.831
213.015
217.454
214.617
212.315
218.95
215.489
212.627
217.194
214.672
219.768
212.045
211.976
211.927
210.555
211.58
210.502
212.075
214.78
221.289
214.471
218.865
214.633
214.76
213.532
211.558
224.15
212.077
224.898
229.835
223.534
222.713
222.533
210.486
214.745
214.221
214.05
217.406
211.884
212.816
211.898
212.286
211.866
224.989
222.844
215.233
212.046
214.462
214.866
225.834
213.179
210.952
218.397
211.275
210.236
218.991
210.839
223.598
217.467
221.037
214.183
223.334
219.635
212.953
211.263
215.51
210.645
223.861
211.416
213.009
213.249
210.792
215.859
216.256
215.032
210.52
214.752
210.56
227.668
227.337
227.67
215.133
213.155
215.311
211.044
217.12
215.72
210.3
230.545
213.494
211.34
223.134
211.797
210.381
215.86
214.359
229.384
214.147
211.829
211.904
214.771
211.615
211.298
216.574
210.46
216.129
213.898
213.315
214.595
211.725
219.346
217.449
215.953
212.926
210.917
224.702
215.037
213.693
213.912
210.479
223.29
214.718
218.498
214.836
211.201
217.498
216.579
211.202
212.396
213.463
215.192
234.702
214.894
214.534
220.71
214.939
210.671
213.25
221.595
213.16
213.924
227.561
222.398
213.715
211.388
226.837
211.695
215.934
217.967
210.931
210.878
214.503
228.296
212.726
214.193
214.072
218.027
213.986
215.289
210.845
212.221
210.75
211.844
214.801
212.58
212.103
219.887
212.129
212.48
221.768
211.517
211.785
215.226
212.004
210.074
212.579
211.91
215.299
214.425
216.423
215.142
210.366
211.226
211.48
220.909
210.789
211.823
219.881
212.966
211.47
222.339
210.187
213.455
217.358
213.342
223.736
214.47
211.574
214.162
238.998
210.961
226.457
210.91
215.465
223.204
211.75
217.186
210.433
231.236
217.2
213.724
216.517
214.458
214.039
222.552
221.363
216.643
221.58
215.129
216.076
214.832
210.269
215.002
211.397
224.058
210.989
214.198
221.848
217.425
211.354
221.544
214.918
216.613
211.27
212.324
210.511
219.539
223.161
223.487
212.626
212.773
219.122
213.377
211.678
215.231
213.544
210.498
214.381
215.848
214.637
213.245
222.719
213.343
214.202
213.805
210.336
216.306
211.312
215.267
212.353
216.638
220.566
214.483
214.515
213.26
215.223
214.462
223.822
220.681
216.999
216.82
210.819
211.144
212.109
214.283
218.243
210.994
214.719
214.618
214.876
210.715
226.384
213.904
212.431
212.895
220.007
218.882
214.838
213.854
219.458
210.267
215.002
212.334
215.111
211.714
212.343
217.394
210.796
215.225
213.264
223.602
215.756
226.533
215.552
215.391
218.773
212.977
212.318
213.109
214.255
217.279
217.328
212.7
210.799
222.012
212.706
212.384
215.046
211.308
213.065
211.253
215.542
226.154
214.125
211.694
217.727
219.457
214.351
211.333
214.071
211.028
214.057
214.064
219.84
215.354
211.544
219.802
214.265
218.037
222.564
214.793
214.919
211.622
218.352
211.675
222.123
228.636
212.37
210.914
216.078
210.626
237.361
211.959
218.726
212.474
211.843
211.528
211.8
215.934
212.198
229.388
218.03
226.886
214.632
211.761
217.644
225.913
214.692
211.996
216.029
228.976
213.65
213.312
220.378
211.143
213.972
210.586
210.821
213.84
215.659
214.682
215.373
211.486
222.17
211.762
222.115
212.103
212.267
211.244
214.271
225.314
212.868
211.87
217.253
213.568
211.208
216.621
217.963
212.991
215.304
214.626
212.5
212.91
215.708
212.267
210.314
220.909
221.358
213.893
213.751
215.141
220.13
213.996
211.106
220.294
221.006
212.505
220.03
215.409
210.921
228.752
221.49
213.667
214.992
214.711
224.442
217.809
215.071
223.027
214.94
214.063
230.311
214.922
210.594
212.598
225.345
211.901
220.199
214.147
211.308
215.166
221.255
211.314
217.088
217.003
213.283
214.806
215.332
210.848
218.473
220.198
215.251
222.721
214.631
210.269
211.77
217.78
212.276
212.282
210.675
214.714
219.435
210.597
213.365
222.457
215.006
214.911
210.902
214.656
211.225
210.99
212.4
213.095
215.148
214.151
211.093
212.127
210.854
219.981
220.461
215.172
214.869
214.807
211.61
215.269
215.094
211.315
213.797
215.051
211.44
211.684
212.597
210.788
214.468
210.54
214.351
212.802
211.745
220.675
212.161
215.044
214.245
214.409
212.06
220.42
219.277
216.171
210.712
219.723
211.972
220.249
214.502
212.139
212.272
211.731
215.051
214.56
216.895
214.286
211.641
210.64
211.641
217.256
214.774
212.142
214.543
221.307
212.038
210.502
215
222.2
210.897
213.788
212.806
219.303
213.391
211.241
212.022
211.692
213.668
217.403
225.521
214.774
210.164
210.016
213.194
210.539
210.813
226.463
223.353
220.657
220.225
210.26
225.039
214.35
210.578
222.675
225.832
211.909
214.006
216.316
210.713
213.008
212.432
215.963
211.578