# vtk DataFile Version 3.0
vtk output
ASCII
DATASET POLYDATA
POINTS 10000 float
-23.5896 -32.497 7.48207
-20.2723 -32.3715 11.7786
-20.3787 -29.4273 10.2088
-22.8492 -36.1187 14.351
-21.6101 -31.297 10.7396
-22.0926 -36.6057 13.3639
-22.8773 -32.092 8.6307
-22.0148 -32.4897 10.3101
-21.0139 -31.7551 10.6557
-22.7066 -29.4653 8.57617
-21.0967 -37.9792 9.5538
-22.4563 -35.0844 9.14709
-22.4884 -35.3123 13.6196
-21.209 -33.7953 11.4759
-21.0432 -39.1741 12.4479
-21.4362 -31.056 10.359
-22.6199 -33.2297 8.10249
-22.1415 -35.6463 13.5734
-20.7638 -31.0128 10.5711
-20.4979 -31.9488 11.6328
-21.8927 -42.1621 8.25848
-22.354 -37.2072 13.6351
-21.238 -33.6544 11.6814
-22.4406 -35.5175 7.97721
-23.0065 -30.2338 9.07868
-18.7578 -42.1801 9.08086
-21.0022 -48.7999 8.90933
-23.2902 -37.5273 14.6192
-21.3338 -36.5784 9.56153
-20.6248 -32.1922 11.5669
-20.0134 -43.4247 7.8484
-20.357 -29.7187 10.3585
-18.3308 -43.3014 9.39697
-22.7637 -32.9414 8.78851
-20.6099 -30.1281 9.54896
-21.7318 -36.6439 12.3139
-22.4799 -32.369 9.47537
-19.5235 -31.5464 11.5636
-19.5626 -31.0735 11.3097
-20.7278 -32.7561 12.2427
-22.7349 -35.0637 7.99541
-20.1527 -39.9564 8.58427
-21.3917 -33.1381 11.7425
-21.5164 -30.6187 10.8353
-22.3353 -33.5972 10.6486
-22.8001 -34.6558 10.0853
-21.8815 -30.7336 9.9902
-22.0132 -31.0655 9.81201
-21.9189 -33.0767 10.6873
-23.0106 -34.5238 7.50677
-20.6643 -32.8645 11.7003
-20.9158 -37.791 9.73196
-22.8313 -31.3695 9.40059
-23.9722 -31.4444 7.09214
-20.3909 -32.7612 11.3812
-22.0253 -34.5359 8.71666
-22.0479 -34.9015 13.6178
-24.6598 -28.648 6.64598
-20.73 -38.4789 9.65341
-21.5633 -31.035 10.8288
-22.9983 -34.4147 8.95906
-21.1862 -38.7823 9.78092
-21.8535 -36.629 8.68532
-22.081 -31.0654 9.81637
-21.5673 -36.6363 9.4544
-24.2248 -29.374 7.26334
-23.042 -39.3221 15.1901
-22.8978 -33.0987 9.76121
-27.9925 -38.0354 17.5376
-22.7749 -37.4994 14.0631
-21.3987 -34.3408 12.548
-20.8197 -39.5157 9.05214
-19.8675 -31.4184 12.5346
-22.2886 -35.8837 8.7383
-22.8357 -37.9272 14.5333
-24.5947 -32.0956 7.03112
-19.8466 -29.6344 9.77473
-21.7508 -37.86 7.84464
-21.7084 -33.8061 11.1076
-21.4127 -44.6288 7.97243
-20.7052 -40.3162 8.89804
-21.8899 -38.135 7.67655
-22.3805 -33.2159 9.81635
-19.8631 -31.7714 11.9629
-20.7661 -30.4012 9.89941
-21.6115 -34.8177 13.2985
-22.0758 -31.734 9.60031
-22.7992 -30.7176 9.13773
-21.939 -37.2092 8.57499
-22.0935 -35.4086 13.2057
-22.1547 -35.3021 8.26746
-22.6742 -29.4486 8.44626
-20.0671 -31.3296 11.2277
-31.7152 -38.0637 18.9923
-22.7031 -34.7124 8.87043
-22.9212 -29.1516 8.30565
-23.5614 -34.1003 7.5701
-24.0596 -32.3304 7.37612
-22.1692 -32.2401 10.2949
-26.3589 -29.7632 5.9445
-19.4602 -41.7218 9.25345
-18.6722 -42.2169 9.53015
-23.9377 -31.4765 7.74358
-20.586 -32.2834 10.8075
-24.2342 -30.2522 7.24986
-22.4723 -34.7464 9.03201
-21.5562 -36.9867 12.4028
-19.8304 -29.4779 9.64173
-20.3199 -30.1508 10.8065
-21.3362 -35.2282 12.2735
-22.4984 -34.1727 9.57363
-17.9883 -29.6218 11.2725
-21.5938 -33.1279 11.411
-20.5236 -31.5318 12.0224
-22.7918 -33.2794 9.35134
-21.7885 -30.384 9.45452
-24.1092 -31.7122 7.12278
-22.9515 -30.909 8.80457
-23.5535 -30.9909 8.15173
-22.9639 -30.8791 8.93374
-21.2053 -33.8683 12.889
-23.49 -39.1143 15.1724
-22.195 -32.2168 10.1225
-20.1774 -30.8076 11.1821
-21.3327 -37.2086 9.3967
-19.9563 -44.4143 8.61503
-20.1492 -29.2962 9.2667
-21.9044 -37.7253 13.1555
-22.8367 -34.7323 9.03704
-22.0533 -35.178 9.25738
-22.5161 -30.3908 9.51304
-20.4755 -41.4074 8.12369
-22.0811 -35.2029 8.91901
-20.7267 -30.5922 10.7085
-21.2471 -29.2558 9.88178
-20.8325 -40.1555 8.81281
-23.0789 -30.9065 8.93219
-21.7956 -32.4132 10.7601
-17.3903 -31.1968 10.85
-23.7798 -30.1884 7.92199
-22.2484 -31.5921 10.1883
-24.1962 -34.5772 7.20167
-20.5869 -33.4895 12.2348
-24.0065 -39.4383 16.1256
-22.7268 -33.172 9.57949
-22.663 -35.4987 13.7432
-21.6384 -35.6679 8.88506
-23.301 -33.5045 7.64397
-24.2989 -32.2078 6.98843
-22.4305 -35.5636 8.15195
-21.0439 -34.1844 11.832
-22.1863 -45.6517 8.17956
-22.7167 -40.467 7.39757
-23.3019 -36.7431 14.5186
-21.4236 -31.7203 10.4205
-22.6114 -30.1208 9.39752
-24.0757 -31.087 6.7381
-21.5846 -37.2637 10.1731
-22.1095 -34.2129 9.60013
-21.2833 -29.5402 10.1884
-23.11 -30.6185 8.48867
-20.7249 -31.0339 10.9722
-21.2594 -46.6127 8.47893
-21.9465 -35.3134 11.1983
-21.8538 -35.9824 12.6624
-23.0858 -38.3965 14.2996
-23.0008 -33.6853 8.56257
-24.8515 -29.6576 6.72982
-22.3853 -35.335 10.6524
-18.9213 -43.7347 8.33375
-21.5304 -29.0784 8.65674
-22.5061 -33.5721 9.15333
-23.2327 -38.0237 14.5537
-24.4461 -39.0217 16.3361
-22.4106 -32.7261 9.77644
-20.8761 -31.3082 11.6347
-24.4308 -28.8455 6.56528
-22.3027 -31.6996 9.36823
-22.7704 -32.3556 9.69122
-22.9355 -31.5854 8.30632
-22.6203 -32.33 9.59476
-22.9703 -30.2067 8.75202
-22.8023 -33.6161 9.00249
-20.3008 -38.297 9.0249
-22.4285 -32.0188 9.65872
-21.9025 -34.3484 11.1403
-22.4673 -29.2921 8.74602
-19.0967 -29.4808 10.9291
-21.2702 -33.5528 12.2071
-22.6138 -33.329 9.38674
-22.6023 -30.6058 9.33103
-21.8017 -31.4278 10.4795
-22.7744 -31.7956 9.57348
-20.7116 -40.47 11.689
-23.7481 -38.4317 15.1314
-22.2703 -32.9584 10.0272
-22.9948 -41.5342 7.51981
-22.2553 -35.5295 12.9279
-21.5473 -36.0078 11.8312
-22.2093 -33.316 9.31527
-23.2655 -32.5659 8.47471
-20.739 -31.9281 11.9319
-23.7866 -31.3187 7.67061
-20.9839 -48.2063 8.27669
-18.9949 -32.6087 11.2836
-20.7836 -30.1588 10.3888
-23.5602 -29.7944 7.75421
-20.3985 -39.282 10.3318
-22.0867 -35.5637 9.5786
-23.8766 -39.4752 15.5085
-21.1049 -39.8856 8.33507
-21.9022 -46.0325 8.15359
-23.304 -31.3847 8.50776
-22.1527 -36.8527 9.55283
-21.1894 -37.6923 8.96151
-20.6804 -48.6139 9.21052
-22.7258 -30.6624 8.96279
-22.5546 -30.7157 9.18374
-22.3872 -34.0465 10.8193
-20.2528 -41.1435 8.55812
-20.5252 -30.9828 10.6026
-19.7865 -29.4247 9.97294
-20.9122 -39.0533 9.02461
-22.4334 -33.7084 10.3733
-21.9897 -31.8733 9.87552
-20.6556 -38.3123 9.29454
-19.7272 -42.9752 8.31992
-22.7398 -34.8082 8.63533
-22.5987 -33.2511 8.95366
-21.8071 -33.24 10.2908
-20.9545 -32.9233 12.1621
-21.6444 -29.3441 9.71255
-22.5647 -32.6435 9.26253
-23.7703 -30.5166 8.10877
-23.1117 -30.3664 8.12301
-23.6013 -29.3335 7.4439
-21.7207 -35.6769 9.55454
-17.8715 -30.3545 11.494
-22.9516 -30.2835 8.31494
-22.975 -32.3163 8.15205
-21.4382 -32.201 10.6892
-22.1275 -33.0629 10.6311
-21.0818 -38.6494 9.38513
-21.2037 -34.2802 11.7182
-21.9733 -30.7677 9.63125
-22.9093 -37.2871 7.1279
-23.4877 -30.0203 8.5116
-22.5208 -31.6369 9.97368
-24.2701 -31.9054 6.73925
-22.6853 -30.1166 8.93467
-21.7306 -36.7587 10.365
-21.2442 -38.3274 8.43346
-22.3537 -34.1613 10.1846
-21.1313 -32.4934 11.4742
-22.4621 -37.0575 7.71677
-21.3244 -44.6927 8.1989
-23.0538 -31.9311 9.10217
-21.4961 -36.6472 12.9539
-23.6393 -39.7169 15.4906
-24.2392 -31.6556 7.72986
-22.2108 -33.0316 9.04111
-22.5618 -33.2028 9.86491
-20.9965 -43.7237 8.36272
-21.4515 -34.8814 12.5818
-21.7196 -33.2013 11.2673
-21.6022 -34.7157 10.0235
-19.5399 -43.323 8.38125
-20.175 -31.9037 12.3192
-21.0094 -44.2014 7.98368
-21.8806 -35.0181 8.92389
-23.6545 -33.394 7.3787
-21.6912 -37.0616 13.0733
-23.4087 -30.0374 8.38428
-21.5233 -36.2139 12.3846
-20.8972 -33.1044 12.0413
-22.8121 -32.2062 9.21957
-20.9495 -38.5501 9.35385
-21.1613 -31.2154 10.9385
-22.0943 -38.2516 7.40781
-23.3197 -32.8781 8.80825
-22.611 -33.8091 9.4488
-21.6274 -35.7616 9.25971
-22.355 -35.7578 7.91028
-28.1064 -38.1223 17.7683
-23.0827 -32.7658 9.70174
-21.6463 -31.0537 10.0465
-22.2533 -35.1177 13.4616
-21.0076 -31.0833 10.5799
-23.7718 -32.4804 7.86018
-22.3129 -32.3952 9.86746
-21.9373 -29.934 9.37187
-22.8383 -31.8504 8.95472
-20.7911 -32.8664 11.3393
-21.6456 -37.3628 12.8742
-22.936 -32.5048 9.34692
-22.1539 -36.6006 8.41742
-19.1362 -42.2007 9.85345
-19.2486 -42.763 8.80919
-22.9041 -32.6942 9.30696
-21.0612 -29.9531 10.3607
-21.2867 -41.1294 7.81469
-20.7272 -31.964 11.6767
-21.7483 -31.0184 10.6114
-23.021 -37.8152 14.4875
-21.7144 -34.011 11.537
-21.7162 -35.6564 12.9433
-22.1884 -33.7305 10.9213
-22.3432 -34.2629 9.14745
-18.6991 -30.1909 11.1744
-20.083 -45.1514 8.35616
-21.6328 -46.389 8.08398
-21.7796 -32.6326 13.3384
-21.7458 -34.5346 12.8535
-20.7476 -30.554 10.273
-22.6603 -34.733 9.60932
-21.6795 -30.7144 9.48178
-21.2553 -32.7933 11.5814
-21.7194 -35.6813 12.3048
-23.9813 -29.746 7.75277
-22.1313 -34.5677 9.52688
-23.1289 -31.4934 7.68659
-21.1622 -32.0767 11.4062
-19.5262 -30.4684 10.9379
-22.5083 -35.6967 13.4977
-22.3323 -32.8397 8.68137
-23.1599 -32.7643 9.09158
-20.8589 -38.1705 8.52746
-22.7968 -30.5759 9.41639
-21.0021 -38.5219 8.28464
-26.3386 -45.4337 6.97605
-25.8213 -38.659 17.1443
-22.9315 -35.3898 13.9834
-20.501 -32.7298 10.9731
-23.2209 -32.8505 7.78219
-22.0391 -34.8842 10.1346
-18.9527 -43.2552 9.98236
-21.313 -32.9484 12.5272
-22.5921 -33.8721 9.18714
-22.5918 -34.703 8.13247
-21.9875 -31.833 10.5006
-22.7014 -34.4324 9.25157
-22.4553 -36.8228 8.71688
-21.107 -32.2958 11.3798
-21.5267 -37.2522 9.74407
-21.8452 -36.3884 13.1051
-21.9881 -36.1371 9.24059
-24.2709 -38.5519 15.8124
-21.8795 -37.6087 13.9033
-20.3706 -31.3636 11.8572
-22.6215 -32.4465 8.98423
-23.1492 -31.2188 8.37897
-22.2353 -33.1661 9.732
-22.8516 -35.3893 7.62233
-22.109 -30.1532 9.51974
-21.4274 -34.4165 11.4971
-23.578 -29.6898 8.21342
-23.1967 -31.5314 8.03709
-23.095 -31.7159 8.31971
-21.8844 -35.1518 9.62194
-23.3002 -31.6901 7.96754
-22.6014 -31.9249 9.53518
-24.5741 -35.9158 26.0262
-22.6977 -33.499 9.21998
-22.9948 -39.5975 14.8939
-24.339 -33.6817 7.52973
-22.7506 -31.8702 7.87183
-23.5207 -38.1392 15.3891
-21.2623 -31.413 10.6298
-20.1248 -45.6026 9.33414
-22.1307 -36.3236 13.5102
-23.2804 -32.4782 9.35554
-20.2586 -31.8608 11.6326
-22.5592 -33.9662 8.14861
-21.8811 -35.4008 11.168
-21.6457 -37.9406 9.101
-25.4009 -39.1553 16.7373
-21.6325 -36.2739 9.5028
-21.1214 -37.351 12.1906
-23.0046 -37.0641 14.2921
-20.8082 -33.0714 11.797
-19.7921 -30.4312 11.0756
-21.4025 -37.1404 8.6445
-23.2388 -38.3484 14.7485
-23.8849 -31.2169 7.83145
-29.9561 -38.0822 18.6673
-22.5727 -36.1666 13.8526
[...]
POINT_DATA 10000
SCALARS t float 1
LOOKUP_TABLE default
231.183
221.997
221.397
218.451
220.875
219.477
224.089
220.267
221.338
225.163
218.052
220.311
219.413
221.137
218.921
220.949
226.755
219.587
221.436
221.816
222.556
219.016
221.271
226.716
222.594
218.505
216.119
217.846
218.874
221.79
225.663
221.392
217.244
223.055
222.138
219.743
220.972
221.76
221.561
221.541
226.711
221.705
221.27
221.105
219.634
218.558
220.585
220.815
220.217
230.292
221.825
217.871
221.246
234.513
221.937
222.778
219.705
239.096
217.673
220.985
221.412
216.962
222.021
220.771
218.929
234.008
217.072
219.911
214.832
218.391
220.97
219.093
221.118
221.966
217.963
234.729
221.796
227.055
220.369
223.606
219.69
228.175
220.064
221.695
221.489
220.217
221.14
222.106
222.406
219.884
224.873
225.741
221.714
214.212
221.757
226.867
229.947
231.986
220.198
244.42
217.631
216.9
229.608
221.682
233.718
221.037
219.77
222.028
221.427
220.763
219.864
220.285
220.899
221.517
220.699
221.656
234.165
223.558
227.066
222.972
220.931
217.035
220.171
221.558
218.807
220.065
222.713
219.247
220.915
220.039
221.349
224.321
221.444
221.416
221.551
220.221
222.961
220.485
219.919
228.894
220.248
232.52
221.678
216.286
220.325
219.196
221.505
229.656
235.003
225.52
221.332
221.441
229.56
218.06
220.937
221.679
237.345
217.35
220.059
221.294
225.11
221.485
219.327
219.348
220.19
217.884
223.686
237.956
218.461
222.445
224.963
221.182
217.784
216.112
220.305
221.615
239.634
221.473
220.397
225.994
220.668
224.035
221.714
219.928
220.712
219.943
224.451
220.843
221.198
220.683
221.603
220.636
220.791
217.502
217.11
219.929
228.124
219.908
219.971
221.107
224.532
221.616
230.198
220.234
222.041
221.335
230.157
216.576
219.133
216.692
223.203
221.52
224.765
218.324
220.268
214.488
222.911
221.897
219.368
221.547
221.546
221.386
219.403
219.466
220.618
218.665
222.602
222.862
222.208
220.229
221.466
221.686
221.28
227.54
227.463
232.632
219.285
220.41
226.253
226.738
220.888
220.039
218.097
221.145
221.199
232.363
225.3
220.096
237
223.208
217.713
222.947
219.224
221.435
228.133
222.012
221.901
220.08
216.711
229.621
222.193
219.842
221.496
220.827
220.664
219.428
222.116
221.472
223.916
221.593
231.599
219.706
225.941
220.198
221.549
221.432
218.269
221.275
230.035
222.795
220.289
219.851
227.114
214.733
220.077
220.685
219.67
221.319
228.466
220.298
221.848
222.66
221.615
219.678
220.991
223.477
215.918
219.827
221.015
221.272
226.489
221.738
220.796
217.946
220.619
220.261
219.8
220.867
220.821
221.23
221.908
220.046
220.554
221.355
219.347
221.644
221.349
220.237
230.24
219.919
230.113
221.418
221.328
219.387
223.79
221.596
222.485
221.468
223.898
230.173
215.444
218.835
221.756
228.942
218.941
215.53
221.107
220.822
225.925
220.435
220.257
221.694
221.437
217.905
219.838
219.517
216.513
218.967
221.624
222.427
225.563
220.371
229.209
221.511
220.707
227.274
227.681
225.816
219.458
228.073
220.897
216.973
220.891
217.291
230.314
228.813
216.987
221.125
215.765
219.473
220.842
221.883
226.123
219.305
219.334
215.804
219.027
219.734
218.241
221.715
221.369
222.135
217.612
229.103
214.326
219.013
218.039
222.558
219.219
220.707
221.556
219.702
221.646
223.196
220.491
221.559
219.241
225.616
220.233
221.091
220.241
217.317
223.293
220.439
228.168
216.124
221.587
233.582
220.618
216.039
220.369
218.771
225.078
221.584
220.186
221.907
217.847
215.892
221.752
223.743
226.862
220.677
220.17
218.687
225.553
218.128
228.12
222.081
224.245
219.545
222.555
229.74
221.626
220.333
219.567
225.974
224.661
219.438
220.305
221.132
221.093
220.403
226.328
219.761
219.759
216.459
224.989
221.892
222.699
220.176
221.591
221.101
221.069
223.422
221.697
219.109
219.896
221.67
220.427
221.37
228.571
221.818
219.226
235.59
229.858
226.246
221.229
221.365
218.912
219.006
218.493
221.029
220.172
217.381
225.521
222.22
220.929
220.195
222.12
224.759
221.303
215.84
221.165
220.822
221.332
230.704
222.907
215.777
219.963
222.366
229.986
223.778
219.617
217.472
226.653
220.543
221.456
228.31
228.264
221.212
226.92
221.904
222.753
226.588
221.444
220.963
220.814
220.822
221.483
220.238
220.234
228.626
219.888
228.657
234.97
236.856
220.604
220.647
219.737
221.111
220.976
217.775
233.319
218.671
222.561
221.245
221.455
221.454
225.253
220.696
219.862
218.117
228.323
237.182
221.175
220.7
226.221
216.071
219.584
218.761
225.483
223.36
219.778
219.996
225.213
220.636
224.321
223.78
223.83
221.488
222.423
223.209
223.796
214.128
225.241
218.398
220.015
221.267
219.641
221.144
221.143
220.509
218.201
221.553
220.123
223.019
219.183
232.362
218.613
220.953
222.653
227.47
224.431
223.953
219.813
220.053
216.46
218.563
224.321
221.563
230.645
221.443
219.036
219.374
221.943
219.771
224.831
220.741
218.639
217.606
225.806
220.801
220.433
220.749
222.151
220.575
221.051
228.606
226.842
221.104
223.007
220.589
217.66
221.883
220.802
230.109
223.601
234.907
220.407
220.262
221.175
221.169
221.277
229.552
220.73
221.867
220.86
225.935
220.558
221.731
223.648
220.775
219.658
220.86
221.512
221.127
219.632
221.502
225.015
222.746
225.743
219.568
216.278
221.514
219.306
224.699
222.014
227.947
220.598
221.251
219.965
224.589
223.226
219.465
223.049
220.369
225.927
221.632
221.09
219.085
220.749
221.439
238.965
219.344
223.059
223.092
223.62
221.866
223.147
225.515
219.536
217.378
224.908
220.474
220.116
226.111
231.552
222.359
217.078
220.956
220.249
216.173
220.673
222.524
217.192
220.379
219.593
221.412
220.86
218.81
221.812
217.755
242.959
221.059
220.482
220.232
220.882
219.971
227.131
221.102
220.916
220.972
221.618
223.591
221.352
222.272
220.111
223.409
228.934
220.542
227.393
219.313
226.959
220.69
221.001
224.964
220.989
220.856
221.765
223.057
223.927
221.395
228.904
216.578
225.389
219.491
221.896
222.747
220.061
218.071
225.58
220.604
220.642
220.86
221.488
219.516
226.844
218.883
220.976
223.2
221.156
224.307
221.689
223.178
234.815
221.048
220.433
225.898
220.714
220.987
229.728
227.373
227.787
227.155
222.581
221.469
217.697
219.157
220.368
213.795
221.14
219.157
220.282
222.601
221.425
234.194
222.338
217.844
220.764
218.392
237.001
224.299
222.093
220.908
223.589
224.171
225.123
224.116
221.749
231.329
226.761
220.109
220.483
217.12
224.168
220.808
221.425
228.895
222.08
224.618
226.819
220.253
222.185
222.129
220.482
226.21
221.835
227.355
218.621
218.788
220.012
228.105
222.251
219.989
221.974
225.06
221.086
225.831
237.096
224.36
220.786
231.329
220.501
214.031
220.307
220.385
221.113
219.611
221.692
220.819
225.383
220.483
223.604
221.337
220.142
225.912
226.487
224.411
220.282
240.724
226.055
220.844
229.134
226.601
221.513
233.847
222.207
233.265
219.494
220.992
228.848
221.378
217.178
220.652
233.441
221.024
221.665
225.207
221.325
221.549
222.803
220.177
222.994
219.504
218.514
220.43
222.142
225.571
218.779
220.923
220.837
224.174
219.18
221.891
221.35
221.474
220.307
220.791
221.025
221.908
228.766
220.719
220.545
220.231
221.464
220.908
218.955
225.57
221.58
225.499
223.178
214.813
220.391
220.338
220.156
224.677
221.044
221.031
221.129
217.261
219.634
229.736
221.214
219.019
219.307
217.009
220.335
220.825
220.876
220.699
225.292
218.402
213.721
218.866
218.076
228.989
221.953
220.789
219.65
221.387
220.386
220.144
220.108
216.764
220.279
222.086
221.249
220.413
220.842
221.45
220.964
226.614
221.476
219.842
220.182
226.605
228.331
221.158
217.274
219.844
220.333
220.172
227.368
226.269
221.004
220.228
221.602
219.237
219.423
221.202
220.201
218.987
220.004
220.915
220.472
231.979
219.27
223.071
223.172
224.103
219.062
226.22
220.681
218.974
216.319
221.277
217.732
221.678
223.592
222.165
221.408
220.611
221.72
223.033
226.561
225.319
219.353
230.146
215.328
221.959
225.768
222.075
221.192
223.002
230.301
228.956
220.241
222.033
219.206
221.406
229.485
221.377
229.981
220.783
220.779
228.381
221.686
221.713
218.687
219.513
216.55
220.396
221.741
221.025
215.642
220.697
221.436
224.966
229.786
221.198
220.783
221.261
217.678
223.069
221.315
224.914
228.57
220.129
221.628
219.947
220.664
218.417
221.624
221.364
224.656
219.918
221.459
229.693
221.075
218.193
221.432
219.731
232.828
232.29
224.604
219.45
221.228
221.699
223.394
226.904
219.678
220.425
220.61
222.925
221.306
221.003
220.357
219.528
219.081
221.131
232.227
221.573
224.664
221.358
221.807
223.215
218.881
221.618
224.594
231.253
222.01
233.142
224.778
220.164
227.604
223.364
219.361
215.961
220.855
221.456
221.22
221.138
224.12
224.794
218.144
230.455
222.258
221.982
234.577
221.12
220.784
220.684
224.379
221.143
221.498
219.926
220.351
228.382
220.774
221.409
228.195
222.079
226.693
224.55
218.125
220.385
224.628
227.906
224.998
221.24
221.016
221.309
232.116
218.506
233.01
221.83
219.828
219.161
221.357
222.009
225.46
222.918
222.742
226.261
225.423
220.114
229.602
222.951
220.026
219.917
222.032
219.225
235.309
219.617
225.213
221.914
228.862
224.363
224.886
231.966
218.685
220.874
229.751
221.079
219.369
219.75
228.252
221.564
234.474
220.273
215.951
222.064
224.907
221.212
221.763
219.298
220.1
221.423
221.437
220.488
220.724
219.48
220.448
219.73
221.738
220.813
229.785
225.163
221.267
219.593
220.164
220.91
221.32
222.004
225.567
221.049
218.053
224.418
219.779
221.876
221.675
220.111
222.837
220.269
221.693
216.056
225.85
218.965
221.586
221.559
228.259
231.728
223.03
228.527
228.585
223.629
234.113
218.713
218.931
217.518
217.125
219.921
233.846
219.075
228.168
227.635
230.42
218.448
219.946
232.781
225.054
220.805
221.63
220.937
219.603
223.181
221.01
225.701
227.247
220.715
218.06
223.123
231.737
220.518
217.512
220.635
230.032
221.428
226.493
219.047
221.181
221.583
222.116
221.021
233.508
219.954
223.273
226.24
221.83
218.788
224.83
226.886
219.255
218.689
224.084
217.513
222.376
220.227
221.273
221.727
217.174
219.862
226.353
214.211
220.168
223.125
219.199
222.425
228.505
224.126
220.422
221.281
221.745
225.976
221.11
219.501
220.664
220.215
226.772
215.148
216.576
219.215
221.648
219.003
226.911
219.034
221.501
220.207
223.668
217.676
232.804
219.488
220.606
228.33
221.881
220.232
220.558
227.4
220.29
219.264
219.378
221.903
235.681
222.832
220.013
221.446
220.841
221.954
220.181
221.482
221.673
227.582
220.478
228.074
219.851
218.846
229.89
220.638
219.475
219.443
218.328
220.291
226.552
224.982
214.139
221.093
221.426
219.954
220.446
239.512
232.635
219.278
220.693
222.953
220.15
221.725
222.375
228.802
221.51
220.233
219.614
220.232
218.399
218.586
219.382
220.61
220.307
224.907
224.107
227.663
221.201
221.625
236.168
216.349
221.606
221.522
221.364
221.26
214.366
217.985
216.184
221.739
219.853
223.462
221.075
236.778
224.6
222.41
221.209
221.608
219.183
221.606
222.681
219.55
220.536
219.117
221.821
224.573
220.926
221.712
225.283
222.144
222.173
218.838
220.996
228.632
221.893
221.862
220.375
223.794
218.407
220.955
217.807
222.187
220.424
221.024
217.088
223.278
221.51
222.299
218.358
224.119
221.016
220.294
235.473
221.093
219.202
220.258
224.982
220.1
218.344
221.79
219.959
220.38
221.386
223.768
218.643
221.762
216.068
222.118
222.396
223.702
223.309
220.349
219.148
217.695
226.89
231.098
220.737
221.542
220.82
223.936
223.385
226.062
222.303
225.052
227.588
220.915
220.329
225.682
219.761
223.51
220.946
233.43
224.84
221.255
220.065
228.013
227.473
218.884
220.503
225.294
222.426
220.315
221.447
219.509
225.509
227.004
230.267
219.513
220.498
221.001
225.671
220.084
220.786
221.346
221.753
219.704
219.758
220.805
222.069
221.664
220.078
221.901
219.801
222.755
221.512
221.902
218.018
218.061
217.695
219.785
217.748
219.141
221.418
218.299
224.196
217.846
219.209
226.666
220.455
221.571
221.306
232.029
225.442
220.421
220.042
222.22
221.136
240.406
221.377
227.623
220.475
220.392
225.182
230.918
224.812
221.485
217.317
219.789
225.747
225.165
222.572
220.278
220.611
230.475
220.946
221.462
225.039
220.729
227.984
226.811
220.806
221.251
217.374
219.438
221.408
221.245
221.542
223.025
221.08
221.001
221.469
221.415
221.843
218.777
221.29
232.224
217.736
221.586
219.577
219.387
222.024
233.695
221.398
220.541
224.286
234.812
231.181
221.251
220.174
223.542
220.712
222.676
229.278
221.442
220.865
219.86
227.247
222.405
222.836
219.273
226.795
216.547
224.806
220.095
224.164
220.664
222.431
214.225
229.76
223.67
221.599
223.781
223.592
230.138
223.59
233.496
223.255
221.374
219.932
221.027
228.86
216.939
219.388
222.596
220.139
223.227
224.532
221.808
228.435
223.023
223.385
223.725
220.408
221.711
221.505
223.036
218.646
222.768
219.236
221.598
221.582
219.644
226.277
221.628
220.43
225.523
230.152
220.783
222.204
219.091
215.862
218.043
217.917
228.125
225.048
220.002
220.226
222.983
220.823
222.672
220.091
220.282
231.89
220.44
226.946
221.189
220.834
218.494
238.428
220.905
226.297
222.974
220.119
224.037
224.852
217.816
224.841
221.935
220.917
224.523
220.598
220.403
218.916
218.899
224.94
225.174
217.954
228.056
223.452
223.977
220.865
218.881
222.306
213.886
223.506
215.289
228.735
218.664
221.246
220.864
232.836
219.187
225.082
221.688
225.656
227.096
223.411
219.912
220.768
219.383
221.773
219.592
221.512
219.565
223.077
222.121
220.346
219.922
219.984
240.123
221.116
221.157
219.124
220.36
219.987
222.72
218.29
218.587
220.068
225.851
216.013
220.334
224.057
225.288
218.564
217.577
222.312
222.067
221.33
229.752
227.233
220.881
222.52
243.569
217.77
223.645
221.892
219.486
226.631
229.709
228.873
222.997
220.317
220.274
218.419
220.979
220.526
219.464
218.413
218.307
220.913
222.42
221.405
221.763
221.209
224.458
220.344
231.126
230.975
222.742
223.405
222.261
219.043
219.612
221.472
221.367
226.881
219.976
221.921
224.152
231.455
230.714
220.989
218.729
221.443
220.766
221.59
225.72
220.243
217.444
216.321
220.371
219.404
220.147
221.492
233.159
222.84
231.545
232.754
221.523
236.01
220.572
226.675
222.422
219.445
218.725
240.65
220.127
221.627
228.402
221.818
219.752
224.063
222.377
222.321
216.163
220.721
216.746
220.728
221.717
234.204
245.438
219.32
218.489
222.092
219.672
231.457
219.537
217.896
221.222
230.172
220.675
230.542
221.072
220.534
221.515
221.075
224.65
225.551
221.865
220.852
216.633
233.38
219.436
220.776
219.88
220.939
236.352
221.365
214.16
217.695
221.756
219.669
219.74
223.885
230.986
229.872
220.533
229.633
221.825
233.89
217.733
219.722
219.997
220.314
240.316
221.258
218.815
221.379
221.116
230.733
222.411
225.935
222.004
217.919
221.448
218.471
229.706
218.874
223.246
229.213
222.796
221.113
221.547
225.183
224.898
220.858
221.596
227.351
221.771
232.705
219.854
220.189
232.21
224.966
223.194
220.834
223.398
220.621
220.196
218.626
220.779
218.649
225.544
219.403
226.521
220.611
221.396
221.199
223.232
222.365
222.461
217.929
215.362
216.931
222.854
228.993
219.689
219.054
219.588
222.741
220.26
221.081
220.848
229.807
217.067
222.079
228.715
220.296
217.164
220.081
221.36
221.606
219.964
217.321
220.167
220.593
221.557
226.719
228.939
214.858
217.848
221.897
219.757
224.496
226.716
220.47
219.726
217.315
225.157
223.531
222.825
219.032
220.734
225.282
223.378
216.86
221.694
220.588
220.281
221.236
216.437
219.377
222.225
218.962
220.054
231.637
220.587
220.082
222.794
221.053
220.718
221.67
222.943
220.521
223.022
221.731
221.72
220.97
219.825
222.648
217.366
220.318
225.054
232.341
220.646
227.848
218.768
226.351
220.019
222.319
220.176
224.207
223.652
221.272
218.177
221.847
219.54
218.804
221.511
231.281
234.358
220.284
218.037
225.394
223.233
223.188
219.72
225.7
221.011
225.918
220.928
220.695
217.418
215.548
222.579
220.923
225.479
223.074
221.841
221.557
220.793
221.662
226.536
227.203
220.97
221.144
229.672
222.752
219.525
225.855
219.986
225.1
223.269
232.704
226.24
214.077
218.663
223.661
217.515
228.461
223.952
223.236
221.799
228.414
217.679
221.312
223.339
225.483
221.123
225.337
218.11
218.668
222.39
218.636
221.878
219.005
220.995
221.424
221.808
221.2
237.16
221.106
224.24
219.587
219.087
223.121
221.046
231.273
219.733
226.789
227.926
223.608
229.281
223.131
220.833
222.517
220.542
226.076
218.095
221.204
221.714
221.602
220.772
222.367
222.213
221.566
225.058
218.831
219.633
218.636
220.916
221.549
220.936
224.723
220.081
219.491
222.328
215.687
222.68
222.699
225.75
221.543
221.547
228.198
224.461
219.164
220.252
220.619
226.197
218.811
221.924
213.563
221.586
218.185
217.669
220.614
220.079
224.019
220.682
220.831
222.742
223.788
221.108
222.616
222.444
220.427
222.106
224.888
220.942
225.499
221.552
218.457
222.613
219.009
219.825
215.786
218.532
229.59
225.036
222.048
220.444
218.704
221.618
219.683
214.276
219.894
223.674
221.427
222.701
224.659
219.728
230.188
224.619
226.684
221.058
219.77
231.982
221.05
214.053
218.113
221.404
216.987
218.941
228.096
220.934
216.728
223.828
219.417
220.834
221.731
220.779
220.178
224.925
221.583
223.116
220.938
218.139
220.203
215.759
234.894
221.257
221.619
225.891
226.118
224.209
221.913
228.161
221.617
224.213
228.831
221.33
221.52
221.04
224.315
220.075
221.635
223.307
220.703
220.332
230.226
220.275
220.608
219.17
220.414
222.282
221.451
220.89
228.33
220.709
220.658
231.708
219.553
227.204
221.208
221.871
218.172
221.499
221.576
221.951
218.036
222.202
218.956
219.162
220.789
216.676
222.762
220.456
219.839
221.396
221.578
220.92
228.862
222.605
221.644
228.551
220.138
222.143
220.512
221.526
220.906
230.708
223.579
227.692
220.072
218.513
228.511
223.806
222.574
221.11
226.638
224.778
218.731
216.454
222.693
220.775
221.864
233.563
217.86
218.163
221.706
221.985
220.723
221.249
221.888
220.238
227.013
221.035
221.55
224.318
221.91
220.932
219.195
218.67
228.097
221.299
221.501
221.095
232.714
231.287
223.303
215.057
215.468
221.546
221.536
220.177
221.89
223.442
216.387
219.8
223.749
223.217
219.614
225.846
222.43
221.49
219.924
220.548
225.736
221.006
220.501
215.449
226.638
232.489
220.117
224.819
220.325
220.808
220.915
220.978
219.979
228.55
224.219
221.629
220.303
221.206
224.84
227.178
221.053
220.71
219.38
221.377
221.235
226.255
221.169
222.848
221.258
244.246
228.042
220.786
223.747
227.114
221.061
221.079
221.406
221.449
220.613
221.476
219.764
217.498
221.23
224.478
219.871
226.904
233.629
226.839
221.564
221.791
215.579
220.794
220.345
221.948
216.355
218.063
215.263
218.609
227.687
224.203
221.526
220.033
219.809
221.105
218.783
222.395
229.213
220.93
221.568
228.024
237.445
219.667
218.273
221.668
221.753
221.517
220.096
223.557
224.643
223.154
217.109
222.314
221.186
225.668
220.423
223.142
221.202
218.828
221.769
229.231
229.476
221.476
220.549
222.73
222.572
230.393
221.803
225.87
221.463
221.273
216.377
221.806
219.304
221.078
225.129
225.197
229.339
217.789
222.817
232.496
224.26
219.673
221.179
217.959
220.492
219.773
220.446
232.572
219.534
222.039
219.784
219.802
221.858
224.985
217.778
223.575
221.464
222.088
220.883
240.975
214.231
217.901
220.458
227.324
220.479
228.447
220.404
221.957
223.543
219.529
216.199
226.693
221.335
221.693
218.1
220.745
221.796
216.814
221.468
221.002
225.673
220.576
221.321
218.801
221.437
222.691
222.012
222.635
219.763
219.015
220.735
225.539
227.024
220.032
231.05
230.944
221.383
221.853
220.674
225.698
218.15
218.995
229.605
219.626
222.092
225.009
220.941
223.102
222.051
222.303
221.235
230.865
226.045
220.155
219.484
218.905
221.279
226.103
221.621
225.346
219.382
219.268
219.34
217.398
219.948
220.312
224.382
220.095
220.266
223.922
225.492
220.244
225.946
220.659
221.299
220.6
220.883
223.179
214.131
219.327
223.196
220.804
218.364
222.822
221.295
221.231
220.47
225.61
216.721
221.186
221.157
221.291
223.413
219.82
221.732
219.6
216.796
221.934
219.569
225.314
219.709
228.066
221.167
221.407
220.639
218.546
220.863
216.773
222.287
224.273
213.954
220.927
231.236
214.257
220.501
221.6
221.957
221.528
221.945
229.259
224.319
222.121
221.412
222.02
222.97
221.54
221.44
222.624
220.116
219.367
221.7
232.606
219.621
220.452
221.189
220.546
223.236
219.619
219.511
217.924
240.712
220.276
222.017
224.079
221.057
220.215
223.171
215.156
232.443
223.04
220.396
217.597
222.4
221.393
217.144
225.631
221.476
222.207
220.82
215.988
221.388
222.839
220.772
218.894
221.714
228.568
222.167
239.787
220.981
221.547
226.196
226.265
223.595