# vtk DataFile Version 3.0
vtk output
ASCII
DATASET POLYDATA
POINTS 10000 float
-43.4951 -42.1839 8.68102
-41.6092 -38.9306 12.3432
-41.8517 -40.9306 10.544
-46.3515 -38.6913 14.9742
-41.0761 -38.8438 11.2846
-45.8653 -39.0868 14.3893
-42.2781 -40.9691 9.55575
-41.6539 -38.5058 11.3182
-42.1568 -38.4221 11.0484
-42.7825 -42.7393 9.99237
-42.7998 -41.9476 9.30056
-41.8651 -41.7607 9.98545
-45.8177 -39.3195 14.4191
-40.8742 -37.9959 12.1343
-42.5716 -38.4321 13.6687
-40.6006 -37.6199 11.2053
-42.804 -42.6373 9.01798
-44.4227 -38.7723 14.1612
-40.8006 -38.4052 11.2511
-41.3235 -37.6566 11.7984
-46.6687 -43.2325 7.96299
-45.4222 -39.265 14.4144
-41.9069 -38.5332 12.6032
-43.5869 -42.1962 8.74829
-42.8493 -42.7135 9.98912
-42.7781 -41.895 8.60918
-45.0896 -43.3104 8.47608
-47.6996 -38.9451 15.4629
-43.4128 -41.7335 9.68421
-41.2068 -38.832 12.6729
-45.2488 -42.7857 8.02423
-41.2279 -38.5625 11.0843
-43.4608 -42.0027 9.51655
-42.5657 -41.0752 9.59601
-40.7645 -37.1419 10.8068
-41.7593 -38.8573 12.7297
-42.2912 -41.9019 9.94909
-41.409 -39.4268 12.1826
-40.7139 -39.1555 11.3794
-42.1639 -39.6591 12.8456
-44.6949 -43.7582 8.43047
-44.1543 -42.3095 8.63632
-41.6313 -39.8887 11.7829
-42.0355 -39.7941 11.5274
-41.0819 -40.1038 11.0116
-41.3326 -40.932 10.7828
-41.8281 -39.9036 10.7566
-42.0862 -40.1586 10.8205
-40.8736 -37.0514 11.5986
-44.4171 -42.5955 8.18978
-40.7767 -38.2763 12.4978
-43.0509 -42.3912 10.1958
-42.4376 -41.3976 9.9819
-43.8952 -42.7678 8.84599
-41.8531 -38.9335 12.9208
-43.6976 -43.342 9.41276
-43.6025 -38.6083 13.817
-43.3988 -42.0851 8.50095
-43.0973 -42.9987 9.75537
-40.6751 -37.1947 11.0675
-42.2338 -42.1235 9.9734
-43.1266 -41.3419 10.0782
-42.6571 -40.5725 8.96693
-41.8638 -41.124 10.5992
-42.4118 -41.1001 10.0147
-43.0658 -42.4298 9.22444
-47.9197 -38.9115 15.6301
-41.8817 -40.8886 10.5229
-51.7651 -38.9354 18.156
-46.6018 -39.4311 14.7393
-42.4401 -38.6539 13.5172
-42.7631 -42.1014 8.97995
-41.5526 -39.0368 12.9368
-42.5644 -42.5302 9.20482
-46.3816 -38.8665 14.7438
-45.9952 -43.7359 7.98161
-40.6872 -38.7437 11.4656
-46.1643 -42.2475 7.96022
-42.1307 -39.1892 11.7333
-47.4878 -43.4044 7.57679
-42.4847 -42.0921 8.5645
-46.2503 -43.227 7.66174
-42.3671 -41.646 10.1262
-41.6059 -39.2467 12.9103
-40.8851 -37.492 11.0045
-43.9623 -38.589 13.8113
-42.5756 -42.8329 10.085
-41.9982 -40.2574 10.6146
-44.2847 -43.1804 8.74528
-44.8119 -39.1584 14.0526
-43.8717 -41.6284 8.60975
-43.6829 -41.9974 9.89759
-41.229 -39.3071 11.9765
-53.4676 -39.0946 19.2415
-44.157 -42.8073 9.54335
-42.2113 -41.0502 10.186
-44.2899 -42.5005 8.07295
-45.1399 -43.8648 8.59506
-40.998 -37.212 10.7612
-44.408 -42.417 8.29366
-41.888 -42.4486 9.50585
-42.2538 -42.4599 9.40306
-43.4334 -42.4334 8.71535
-41.6812 -39.1978 11.6299
-43.9425 -43.9576 9.07288
-42.6333 -43.8232 9.21718
-41.787 -38.735 13.2644
-41.2286 -38.5385 11.1268
-42.381 -39.7049 11.9402
-40.8859 -38.2953 12.6359
-42.1869 -42.3891 10.1535
-41.2115 -37.7288 11.7895
-40.4934 -37.8452 12.2566
-42.0865 -39.055 12.0609
-42.3845 -41.885 10.2675
-41.2535 -39.1017 10.9593
-43.5533 -43.2576 8.57692
-42.0422 -41.8821 10.4127
-41.2103 -40.6953 9.22819
-42.2074 -40.4216 10.13
-43.0376 -38.1402 13.647
-48.6424 -39.2892 15.6304
-41.9991 -41.0119 10.6257
-41.276 -37.8233 11.7063
-42.5295 -41.7088 9.99647
-44.4183 -43.5497 8.49955
-41.2748 -39.1528 11.2511
-45.3501 -39.3061 14.176
-44.4016 -41.2908 9.72525
-43.5329 -41.6883 10.1124
-41.3319 -39.488 10.462
-45.2352 -43.9829 8.02144
-43.1321 -41.6243 9.43746
-41.3698 -39.3393 11.5801
-41.6867 -39.5119 10.8079
-43.3867 -42.9201 8.77488
-42.5489 -42.3083 10.4067
-40.9715 -38.1248 11.1924
-41.455 -38.7054 11.6614
-42.1253 -41.6124 9.50443
-41.5178 -41.2937 10.7809
-48.9691 -43.5619 7.88755
-41.8322 -38.681 13.0237
-48.3279 -39.1014 16.8879
-42.7621 -40.6764 10.291
-45.8815 -39.1847 14.587
-42.7402 -41.8578 9.31931
-44.1818 -43.4869 8.56882
-43.1975 -41.8404 8.59512
-42.6629 -43.0023 8.8461
-41.5669 -38.9645 12.6324
-45.8014 -43.0182 7.80632
-48.6513 -42.7903 7.0178
-47.749 -38.7238 15.4298
-40.5646 -36.7449 11.2925
-42.164 -39.9866 10.5391
-44.7381 -42.1301 8.30416
-41.6574 -40.4816 10.4812
-42.456 -40.4244 10.5321
-40.8072 -36.7737 11.3424
-42.6114 -41.1922 9.43974
-41.123 -39.3702 11.7407
-45.9419 -43.3137 8.42355
-42.6009 -39.3128 12.1737
-45.3657 -39.2258 14.1264
-47.0687 -39.3969 15.1375
-42.0636 -41.2512 9.44318
-43.8109 -42.8314 8.8085
-41.8555 -41.4334 11.1397
-43.6868 -43.3288 8.75124
-42.175 -40.1624 10.1626
-41.676 -43.1658 9.65361
-48.1559 -39.2248 15.7307
-49.6884 -39.4834 16.8446
-42.1143 -41.9858 10.7246
-41.6872 -39.3697 11.8979
-42.6173 -42.3343 9.38602
-42.5023 -40.9699 10.3318
-41.7123 -41.6669 10.0316
-42.8671 -42.3082 9.55966
-42.0754 -40.6092 10.5823
-41.8586 -39.2601 9.95805
-42.901 -41.8973 9.54145
-43.5389 -42.3854 9.20784
-42.6578 -41.1118 10.352
-41.5058 -38.5339 11.8825
-42.5051 -41.6908 10.1458
-40.8 -37.7647 11.4712
-41.264 -38.3813 12.9985
-43.1968 -40.8574 10.2438
-41.0365 -41.0208 10.2492
-41.4264 -38.5873 10.9682
-42.1651 -40.4753 10.6315
-40.7793 -38.5783 11.933
-48.8222 -39.3712 16.2268
-42.1857 -40.3699 10.6823
-49.1561 -43.76 7.00621
-44.8895 -38.8691 14.188
-42.1662 -39.9974 12.0366
-42.4645 -41.2442 10.1339
-42.6832 -41.7484 9.45255
-41.3712 -40.0969 12.2952
-43.7975 -42.567 8.69434
-45.9355 -43.6156 7.78962
-41.4367 -37.6635 11.9843
-40.2227 -37.1625 11.1634
-42.5797 -41.7712 9.26053
-42.6688 -40.5779 9.87883
-42.94 -41.2823 9.70171
-49.4902 -39.2777 16.2977
-43.3641 -41.179 8.2155
-45.6322 -43.356 7.84697
-42.4931 -41.968 9.60059
-41.9629 -41.8331 9.70235
-42.0853 -42.124 9.09142
-44.0188 -43.0272 8.94056
-41.6676 -39.9594 9.94923
-42.7032 -42.0843 10.4216
-41.4819 -40.6513 11.4145
-44.1904 -43.6745 8.69643
-40.9356 -38.1472 11.697
-40.3104 -37.301 11.0761
-43.0645 -43.3382 9.16208
-41.1956 -39.7818 10.9565
-41.4258 -40.1343 10.7799
-42.0526 -41.616 9.38459
-45.0405 -42.8434 8.04097
-42.5686 -41.7155 9.64646
-42.7324 -41.8232 10.0314
-41.4189 -39.6781 10.742
-41.476 -38.4767 12.9461
-41.7433 -40.2728 10.4633
-42.2689 -42.6955 10.3262
-42.9638 -43.6104 9.28227
-42.3752 -42.0108 9.74653
-44.2667 -42.9001 9.00549
-42.8695 -41.8973 10.1105
-41.4574 -39.7939 12.6391
-42.07 -41.9212 9.62555
-43.1436 -42.5074 9.40664
-41.9316 -39.4115 11.2249
-41.5932 -40.1216 11.0581
-43.1192 -42.7764 9.31821
-41.1093 -37.9499 12.2445
-40.7147 -39.0142 10.97
-46.0606 -43.3408 7.57928
-43.2222 -41.6808 9.51049
-41.5417 -38.8192 10.8548
-43.726 -41.3462 8.36577
-42.5092 -41.6016 9.85792
-42.3665 -41.472 10.7756
-43.2848 -42.6983 8.52603
-42.3525 -41.8217 11.0144
-42.0758 -38.877 11.3801
-43.3491 -43.2924 8.13229
-45.7873 -42.7351 7.95397
-43.0395 -41.5725 9.9868
-42.9312 -38.6897 13.6338
-48.3218 -39.3821 15.9534
-42.7988 -42.8143 9.21231
-42.5134 -42.3832 9.65462
-43.1854 -40.8306 10.101
-46.1461 -43.155 8.06879
-43.9431 -38.6335 13.8886
-42.2154 -37.8628 10.7862
-42.4517 -42.0785 10.1812
-44.5164 -42.9068 8.41599
-41.97 -39.1638 12.2256
-47.1293 -44.4177 7.74179
-42.8645 -41.8228 9.12647
-44.8756 -42.145 8.65798
-43.2781 -38.3236 13.6077
-41.7254 -40.762 9.70882
-41.6142 -38.1783 12.9228
-42.1416 -39.1147 12.727
-41.562 -40.9372 9.96972
-42.2661 -42.8154 9.36643
-41.5011 -38.4113 11.5057
-47.406 -43.4171 7.54239
-42.5192 -42.2498 9.79713
-42.3269 -41.8739 10.2721
-42.4041 -41.4412 9.3042
-42.9445 -42.4573 8.46229
-52.2262 -39.0752 18.5915
-43.2863 -41.2183 10.2572
-40.7571 -39.8268 10.9269
-45.9838 -38.8392 14.1921
-40.7147 -37.5659 11.1878
-43.1009 -42.0445 9.03178
-41.4996 -38.0752 10.7931
-42.1357 -40.9755 10.3916
-43.4042 -41.3838 9.68973
-41.022 -37.9606 11.5178
-43.8321 -38.3175 14.0709
-42.2071 -41.1871 10.2125
-44.4844 -43.3953 8.58598
-42.9964 -42.2269 9.67624
-43.7232 -42.7975 8.55357
-42.7014 -40.8035 9.8302
-41.6729 -39.0481 11.0664
-47.6306 -43.0286 7.74559
-41.7713 -38.1728 12.9156
-40.9795 -38.5551 11.8145
-46.8295 -38.9113 15.1308
-42.1275 -39.1377 12.5303
-44.3078 -38.4485 14.0487
-40.0975 -35.7237 10.8169
-42.2399 -42.069 9.8511
-41.409 -38.8701 12.0662
-44.9295 -44.3679 8.5067
-45.9313 -43.2333 7.89632
-44.6169 -38.6606 14.3247
-43.5754 -39.0733 13.6861
-42.1601 -41.1497 11.0318
-43.8538 -41.8985 10.4674
-41.7861 -38.69 11.0414
-40.7551 -37.7796 11.9235
-41.7125 -37.5893 13.0553
-42.7111 -41.5024 9.28578
-44.1347 -41.5954 9.881
-42.4127 -41.4826 9.40819
-41.2558 -38.7381 12.5078
-41.079 -38.9201 11.5656
-45.6058 -39.1477 14.3584
-43.3439 -41.525 9.51616
-43.3822 -41.9615 10.3571
-44.5106 -43.0429 8.64461
-41.718 -40.9182 10.4271
-43.8373 -42.1618 8.61501
-49.3972 -41.9441 6.53106
-50.2932 -38.8535 17.5759
-46.2874 -39.1105 14.7702
-40.9053 -39.2802 11.4129
-43.5686 -41.788 8.6121
-42.5279 -41.9612 10.4076
-42.4855 -43.1924 9.36192
-42.6266 -38.3434 13.4562
-43.2362 -41.7971 9.91213
-44.6788 -44.1425 8.77174
-41.6315 -40.9293 11.504
-43.4697 -41.8297 10.0448
-41.4176 -42.1647 9.11923
-41.2851 -37.9721 12.5818
-42.7271 -41.5564 9.84014
-43.4065 -38.3721 13.7859
-42.4888 -43.1302 9.64561
-49.3934 -39.5504 16.1266
-44.9384 -38.9016 14.303
-41.4609 -37.8594 13.0625
-42.3608 -41.6734 9.87584
-42.6307 -41.292 9.4601
-42.7349 -40.601 10.1171
-45.3978 -43.0477 8.02578
-41.694 -39.3532 11.0489
-41.4865 -38.4469 12.4076
-42.8094 -41.0305 9.67327
-42.8929 -41.4759 9.46369
-43.4549 -42.572 9.65916
-42.9338 -42.0905 9.97011
-43.8726 -42.364 9.22851
-42.0759 -40.387 10.0006
-50.1783 -35.2272 26.7917
-42.4316 -40.5074 9.97369
-46.913 -38.7583 15.8361
-45.1998 -43.8967 7.83376
-43.6537 -42.6798 9.13172
-47.473 -39.4343 15.7776
-41.5221 -40.2818 11.0841
-42.8095 -41.3583 9.1965
-44.9909 -39.0542 14.4998
-42.3056 -39.8932 10.2798
-41.3143 -39.5366 12.4687
-43.4801 -41.8863 9.1638
-41.2884 -39.1843 11.5626
-44.2551 -43.1693 9.27378
-50.4496 -38.977 17.8158
-43.1549 -41.1631 9.82366
-41.85 -38.7252 12.9274
-47.0269 -38.898 15.191
-40.8997 -37.4421 12.7288
-40.609 -37.4368 11.5309
-44.1115 -42.6116 8.93551
-47.785 -39.3219 15.2827
-42.7486 -42.7782 9.3891
-52.2158 -38.8474 18.6082
-45.6677 -38.6218 14.484
[...]
POINT_DATA 10000
SCALARS t float 1
LOOKUP_TABLE default
221.512
214.17
210.647
214.729
211.416
214.594
215.491
211.669
211.411
212.62
217.046
212.716
214.759
214.077
215.025
212.089
218.895
214.671
211.648
213.242
226.536
214.812
214.601
221.004
212.648
222.163
222.63
214.695
214.577
214.951
226.232
211.321
215.599
215.22
212.145
214.832
212.946
213.746
211.51
214.922
222.803
221.795
212.319
211.506
210.249
210.204
210.467
210.379
213.16
225.069
214.831
211.801
212.854
220.092
215.052
215.982
214.744
222.918
213.915
212.181
212.769
212.491
219.831
210.474
212.725
217.472
214.578
210.715
212.385
214.891
215.098
219.317
215.185
217.588
214.647
226.126
211.993
227.022
212.333
229.461
222.44
228.806
212.131
215.15
211.909
214.595
212.165
210.552
220.698
214.644
222.235
213.351
213.212
212.188
215.277
211.923
225.989
221.542
212.147
224.349
215.532
216.223
221.176
212.087
218.13
217.199
215.269
211.392
212.752
215.037
211.881
213.224
214.532
213.302
211.471
210.804
221.922
210.931
217.823
212.265
214.74
214.691
210.436
212.963
212.735
222.376
211.178
214.677
214.504
212.335
211.225
225.7
216.186
211.925
210.674
220.582
210.972
211.739
212.431
215.707
210.192
227.033
215.114
213.408
211.591
214.811
216.934
221.889
222.283
220.048
214.772
227.797
234.289
214.61
212.763
210.831
224.383
210.842
210.842
212.815
216.243
212.456
223.013
213.426
214.596
214.977
216.188
220.352
210.362
220.621
212.146
214.432
214.652
213.777
210.249
212.853
216.367
211.348
212.48
215.236
210.615
213.539
215.437
217.598
211.297
213.108
212.055
212.53
215.28
211.843
211.461
211.169
210.509
213.421
214.261
210.47
233.871
214.564
213.023
212.167
216.046
213.991
221.281
227.624
213.635
212.343
217.368
213.601
214.528
214.203
225.473
227.318
215.02
214.36
218.504
219.323
213.174
210.984
211.028
220.893
212.877
212.12
217.689
210.343
210.313
216.515
226.072
214.771
212.576
210.565
215.175
210.932
211.103
216.797
214.098
218.886
212.227
214.816
214.844
216.201
210.991
210.37
216.739
214.262
210.821
229.362
215.696
211.086
224.231
213.535
210.311
222.506
210.211
211.584
225.207
226.812
212.868
214.959
214.512
217.467
214.595
212.479
225.756
214.645
211.857
211.834
223.238
213.755
227.608
218.318
221.676
214.701
214.478
215.071
214.712
212.887
216.397
212.171
229.715
213.775
211.445
217.127
223.084
212.235
211.745
210.277
214.298
212.096
218.947
211.617
211.117
214.611
212.499
214.637
211.784
221.788
214.509
222.255
213.847
211.009
228.366
215
213.034
214.795
214.386
214.484
213.031
213.474
213.536
222.011
227.015
214.654
214.885
210.277
211.066
211.214
213.671
215.037
217.25
213.561
216.391
214.642
212.125
214.659
215.697
211.28
221.476
210.954
222.012
238.519
212.804
214.814
211.526
222.166
211.011
216.349
214.932
213.265
220.188
211.264
212.6
218.297
214.807
213.664
214.719
214.516
214.485
214.643
215.178
213.406
216.086
212.377
226.105
210.793
214.386
214.739
216.035
214.573
212.863
217.458
212.854
217.538
213.038
214.408
227.129
218.058
214.73
210.384
217.925
214.874
211.724
214.484
218.033
211.962
216.947
212.652
213.867
215.04
214.759
215.151
212.877
219.478
214.847
216.255
212.087
214.471
214.176
215.257
211.321
213.773
214.787
214.075
211.012
217.03
210.495
212.904
214.928
216.106
213.767
211.379
214.413
214.689
222.401
212.451
230.891
213.843
221.5
226.213
210.335
212.759
210.757
210.301
226.031
214.772
212.573
214.402
210.949
213.412
214.899
214.787
218.326
210.515
217.415
214.494
227.557
214.364
218.343
214.045
222.373
211.953
214.244
221.967
211.876
212.32
210.351
217.585
214.009
218.941
211.592
214.733
214.608
211.104
222.248
211.013
210.586
213.28
215.41
211.383
220.18
210.242
212.932
211.522
214.967
213.871
225.08
210.854
210.725
213.855
215.09
211.577
224.149
223.704
214.404
221.498
224.034
220.853
210.488
211.295
214.898
214.862
216.027
211.628
211.968
211.269
211.358
217.547
211.31
210.333
214.784
225.667
212.542
212.335
215.024
211.973
210.976
225.969
226.182
210.47
215.009
212.902
222.314
214.081
216.524
214.964
227.237
215.118
211.236
220.137
215.501
219.564
228.674
215.007
211.489
215.524
213.627
210.303
210.497
212.686
217.154
214.865
211.619
232.538
210.519
220.321
223.282
221.652
211.472
211.359
214.802
212.544
212.375
213.909
218.902
214.843
222.13
214.485
215.238
212.814
226.809
212.033
215
213.832
216.069
225.811
215.164
214.53
236.102
215.928
219.97
221.572
225.746
212.968
211.544
215.695
215.683
214.717
212.209
211.595
217.096
211.182
224.314
221.386
225.525
212.13
226.979
216.994
214.62
219.1
213.723
213.332
211.831
213.282
211.36
210.925
213.749
217.838
210.253
217.903
214.882
211.12
213.902
220.623
211.259
212.553
212.974
215.195
213.993
210.478
211.101
214.492
219.434
214.604
212.684
213.672
212.086
219.761
232.924
211.248
217.058
217.983
217.459
215.013
210.256
214.413
216.673
211.093
211.409
227.625
230.205
212.733
225.909
211.242
211.3
212.891
210.398
216.719
212.136
218.471
211.932
210.349
213.08
215.09
211.657
213.384
212.152
213.073
214.573
217.911
211.81
210.304
212.97
214.922
210.978
213.944
211.157
215.186
212.143
211.81
225.321
226.215
225.223
213.045
210.815
211.942
214.482
219.923
211.053
221.109
214.91
212.386
213.944
211.905
210.2
214.674
216.165
212.592
214.169
213.524
212.378
214.829
212.799
212.464
224.08
212.173
222.353
216.107
217.442
227.137
213.446
218.883
214.789
215.454
230.147
211.428
211.938
212.638
217.529
210.689
214.335
214.633
214.407
213.02
212.79
214.495
214.66
212.504
214.896
212.615
212.345
211.888
213.722
214.75
221.854
212.088
213.111
219.48
214.383
214.691
225.361
220.682
213.704
210.703
214.758
231.361
211.342
212.348
210.629
214.432
232.905
213.504
214.606
213.962
215.115
211.639
213.202
223.035
210.883
214.932
212.467
226.441
228.059
212.446
219.296
214.455
224.939
218.009
214.787
210.647
214.644
211.099
215.568
210.954
215.006
213.203
212.108
215.385
221.733
212.455
211.75
215.734
210.967
212.345
213.431
217.811
222.724
211.243
210.524
217.999
213.196
210.899
218.748
224.628
223.937
218.949
214.316
211.223
211.654
212.768
214.833
212.139
211.631
214.798
214.345
213.165
214.382
220.356
213.675
216.452
210.333
211.948
221.492
221.916
223.791
212.647
227.569
224.834
215.846
216.82
210.786
215.464
214.638
210.755
212.199
213.628
215.122
213.504
223.061
218.713
210.952
212.853
229.911
210.801
212.481
210.346
212.718
222.357
218.997
214.293
210.256
210.351
210.922
213.103
221.704
211.21
211.83
219.598
211.553
217.612
221.408
212.889
212.606
219.814
210.46
212.098
214.649
210.809
212.291
215.862
210.953
211.566
213.295
214.936
216.107
213.628
214.836
222.414
227.292
223.908
225.627
224.377
228.201
212.109
228.56
215.763
218.797
217.742
214.624
212.7
211.345
212.551
230.758
212.002
210.93
214.922
223.112
218.121
212.083
212.868
210.156
215.033
229.655
210.683
224.237
213.777
212.694
210.61
216.358
225.922
210.775
213.161
211.147
214.182
219.241
215.335
211.056
212.981
210.426
215.19
212.824
211.131
221.929
221.947
211.893
214.601
211.017
214.723
213.352
211.384
211.598
226.328
210.979
212.41
211.811
213.624
215.962
216.28
210.27
214.804
213.137
219.807
214.772
222.246
222.263
210.39
211.979
217.393
215.129
214.949
211.85
210.627
229.8
215.574
212.543
210.581
215.604
216.487
213.595
213.54
220.299
213.319
213.025
210.915
213.307
215.448
211.447
213.518
215.033
211.143
213.395
210.676
214.005
214.19
210.816
211.098
213.501
218.033
217.671
214.033
214.611
211.04
210.634
213.943
233.627
217.084
212.539
210.345
210.538
213.41
214.795
215.19
212.117
215.741
214.845
222.59
211.94
229.978
214.819
216.874
214.287
224.769
214.953
225.491
212.655
211.7
213.854
214.364
215.788
212.604
210.468
211.205
214.21
211.213
214.981
213.466
224.774
228.836
210.268
228.811
212.649
213.453
217.5
213.201
212.216
212.338
224.216
217.257
210.476
213.874
213.413
212.857
219.731
212.805
235.452
212.409
212.694
220.203
211.352
215.209
217.659
214.762
213.781
214.937
215.031
214.959
212.949
214.794
211.125
211.438
220.237
215.128
214.881
214.735
215.532
224.051
211.928
212
213.609
210.465
214.736
210.701
214.706
214.942
212.032
214.933
230.485
210.872
212.921
218.572
213.527
216.79
211.49
212.439
222.96
226.682
221.008
210.712
212.962
214.143
216.615
220.838
213.81
214.335
214.584
210.49
220.137
212.774
211.419
213.986
214.752
211.762
225.903
212.74
212.477
211.118
218.928
225.562
214.744
212.431
215.524
228.967
211.813
239.942
226.035
220.46
214.54
221.915
215.456
212.039
222.326
210.828
215.442
215.62
214.48
214.405
218.111
219.394
216.272
213.621
224.683
210.272
210.516
210.871
224.01
213.189
211.435
211.657
212.97
215.302
213.03
212.977
220.346
212.109
220.491
215.945
214.804
212.194
229.685
215.747
222.063
211.884
210.875
211.189
214.911
213.422
223.151
214.188
210.312
212.871
214.119
210.824
225.439
220.737
210.588
223.172
228.572
214.929
221.289
220.715
215.16
211.716
212.35
211.175
222.925
214.724
223.174
215.274
221.355
231.822
213.934
239.544
214.534
210.467
219.511
222.876
210.324
212.406
218.12
212.344
239.484
214.826
215.594
212.209
215.91
212.688
218.967
210.384
220.968
212.729
211.746
214.651
210.953
216.4
214.951
214.656
213.272
226.974
234.301
215.693
212.1
210.166
218.451
215.005
210.244
213.284
232.155
211.964
215.194
214.213
210.882
214.178
212.04
215.374
214.584
215.1
210.592
213.184
217.213
210.708
213.953
211.865
233.81
221.632
214.139
216.693
223.44
213.141
219.622
215.094
216.017
214.842
219.316
212.052
222.744
220.477
220.733
218.196
218.376
211.886
219.5
223.051
219.812
214.964
214.869
213.72
213.642
213.917
214.057
216.337
224.823
211.125
213.022
212.193
232.838
213.48
214.897
211.626
218.908
212.194
229.07
211.121
210.237
213.901
213.744
212.009
221.889
215.193
215.507
217.196
214.431
214.545
216.794
232.553
213.212
214.947
226.681
214.284
211.444
214.677
214.599
211.219
213.811
214.869
223.426
214.379
214.792
215.574
215.015
213.832
228.95
226.886
212.181
215.045
212.421
216.503
226.715
214.587
211.251
211.124
228.369
212.736
213.693
218.993
222.158
212.244
228.116
210.342
211.858
210.743
222.647
212.414
219.199
213.628
210.367
217.167
213.854
215.07
217.101
215.546
214.37
214.617
214.68
211.682
223.628
215.596
211.315
210.744
215.24
211.027
211.045
213.021
214.8
228.653
210.938
216.756
212.443
211.408
228.788
215.036
211.321
212.019
214.897
210.641
216.423
214.847
213.853
211.633
212.56
211.092
213.175
221.305
218.272
214.571
211.972
218.756
220.333
214.045
225.182
217.781
215.191
214.738
213.658
213.766
213.003
219.978
212.045
213.257
213.105
219.98
217.552
230.19
212.96
214.849
222.482
214.284
213.422
210.282
212.782
213.395
212.345
218.74
211.548
213.166
214.538
211.697
223.649
221.532
231.5
219.03
210.457
212.005
210.308
215.153
212.479
212.291
215.927
221.241
213.505
223.732
212.372
212.145
212.447
210.204
210.773
211.765
210.708
215.367
211.074
213.907
215.1
212.558
214.734
211.244
214
215.068
214.952
211.273
215.454
211.436
212.586
210.758
216.369
219.117
215.195
211.964
220.922
211.985
214.923
214.984
222.303
210.282
212.423
212.628
214.606
211.543
211.628
219.512
214.166
215.036
213.871
212.307
210.958
213.724
212.899
212.696
214.662
213.9
229.913
217.373
211.137
216.451
211.139
226.951
213.226
215.375
213.645
221.216
226.485
214.024
210.785
213.362
212.577
215.008
211.948
220.781
226.133
214.839
211.163
231.036
229.439
213.654
211.338
215.679
220.33
212.298
218.2
212.27
224.826
216.276
223.608
214.783
213.316
213.34
229.151
214.476
211.444
211.698
210.295
214.509
214.6
222.354
210.869
212.312
210.33
212.423
211.647
218.179
215.098
211.277
214.663
212.342
211.539
215.873
214.309
210.527
214.193
213.065
214.084
214.617
212.924
218.158
211.497
215.056
211.903
223.789
223.925
214.492
215.126
221.887
210.951
222.291
210.446
224.812
216.411
213.509
217.344
220.539
216.914
212.944
220.627
214.768
213.762
221.396
211.474
214.82
210.37
221.222
214.068
221.126
216.213
213.908
229.303
215.629
212.368
212.601
214.481
210.978
212.164
214.41
214.878
213.741
212.617
212.61
215.203
220.582
214.288
219.844
210.594
233.617
211.701
215.11
210.556
211.933
222.937
226.321
212.51
213.378
211.84
222.656
220.888
210.553
214.977
212.167
210.828
219.849
226.046
215.048
214.857
215.088
215.759
210.393
225.496
212.313
217.679
212.655
218.344
212.438
215.818
210.333
221.251
212.262
219.063
212.943
212.417
210.578
213.038
219.778
214.445
224.296
222.273
211.347
211.407
211.223
227.605
217.621
210.515
214.461
213.469
214.066
214.273
213.106
216.829
222.384
214.072
213.703
212.309
211.393
218.414
222.065
211.4
211.025
210.425
212.827
211.224
214.752
220.534
211.587
211.327
221.972
213.852
210.815
215.517
214.587
214.623
217.392
215.065
228.968
214.357
210.705
214.86
213.39
212.713
214.973
218.7
212.953
218.428
212.496
233.095
215.018
214.562
219.65
226.625
215.096
225.679
213.744
214.316
225.89
214.254
214.752
216.889
210.797
214.721
213.101
211.606
213.248
211.987
212.197
213.131
215.262
213.614
218.933
215.312
224.958
214.784
219.737
212.081
212.524
216.528
214.926
219.873
216.292
210.61
210.46
221.45
220.447
223.646
215.087
215.942
228.236
214.113
212.761
213.661
214.6
214.096
211.494
212.916
211.015
212.523
213.129
214.678
214.684
214.884
222.641
212.94
212.251
216.182
212.789
220.144
212.783
213.556
212.351
210.897
217.317
212.422
213.823
214.347
230.281
214.544
214.299
212.106
210.686
214.626
220.271
214.258
215.158
210.879
221.444
217.315
213.809
212.61
211.762
214.104
216.327
228.513
213.58
215.228
213.858
219.094
211.217
212.901
210.852
222.203
218.859
220.002
212.759
211.852
212.753
210.497
212.204
210.934
220.719
217.844
215.485
224.46
216.32
214.589
217.693
213.882
210.349
219.094
216.858
211.565
227.975
226.947
222.74
215.233
214.717
210.287
210.888
213.861
214.195
210.421
214.179
213.402
214.738
211.461
212.708
213.732
220.778
212.773
216.547
219.341
210.602
223.658
212.809
214.242
210.593
219.287
214.811
222.858
215.48
215.712
214.914
226.502
210.248
213.514
212.162
211.655
211.496
212.04
218.126
210.359
214.278
225.532
225.153
214.808
212.15
210.778
214.705
225.436
219.686
218.285
210.609
216.934
210.378
214.422
214.35
215.133
210.952
215.148
212.126
213.413
214.014
210.413
213.5
217.34
215.117
214.999
214.918
211.778
224.534
212.712
212.224
220.922
214.776
212.531
217.658
213.179
223.032
230.986
210.899
217.395
214.595
226.486
212.617
214.604
212.097
210.604
223.403
210.514
217.74
211.659
215.249
229.715
218.573
225.961
214.029
215.031
213.583
214.85
219.545
214.858
212.775
223.366
216.044
215.286
212.244
226.972
223.486
211.949
224.592
226.91
211.267
218.402
213.498
214.488
220.04
214.355
219.294
210.183
214.177
211.581
210.292
214.33
214.383
217.91
215.666
213.198
231.515
213.444
214.996
212.857
220.713
220.903
212.906
219.084
215.277
214.623
215.543
218.645
211.104
211.002
219.572
210.687
210.344
210.492
215.032
218.471
214.728
210.751
216.919
214.864
214.4
213.993
211.825
210.85
211.63
218.576
211.887
222.161
213.337
215.642
219.094
217.993
214.694
214.967
210.215
220.517
213.565
211.346
221.283
216.357
213.55
212.37
211.616
211.317
212.423
215.838
215.818
214.098
213.987
211.153
211.05
215.016
213.848
211.009
210.514
216.124
214.478
220.271
210.878
212.517
229.011
210.758
212.38
211.034
218.331
213.147
212.693
211.893
214.528
212.037
210.344
225.827
214.562
215.088
227.174
221.017
214.015
224.528
215.072
215.256
213.001
210.639
217.319
213.425
214.75
213.21
212.509
219.499
214.787
213.582
216.499
220.227
219.454
211.231
221.793
212.523
214.252
219.764
211.26
215.837
210.793
215.841
211.162
213.245
213.712
214.178
210.322
215.067
214.745
212.639
212.626
211.048
211.4
219.892
227.29
229.641
211.239
211.302
229.372
224.659
213.552
226.944
211.08
222.769
223.274
221.637
221.032
212.21
212.145
215.029
214.683
215.567
212.66
229.831
213.243
217.454
214.638
212.041
218.95
215.534
212.554
217.194
214.689
219.768
211.86
211.798
211.543
210.603
211.667
210.756
212.739
214.775
221.289
214.51
218.865
214.648
214.802
213.67
211.762
224.15
212.19
224.898
229.835
223.534
222.713
222.533
210.459
214.942
214.342
213.937
217.406
211.581
213.185
211.745
212.434
212.526
224.989
222.844
215.112
212.017
214.437
214.925
225.834
213.106
211.132
218.397
211.657
210.168
218.991
210.87
223.598
217.467
221.037
213.783
223.334
219.635
212.908
211.431
215.403
210.461
223.861
211.206
212.952
213.402
210.929
215.877
216.261
215.147
210.365
214.684
210.6
227.668
227.337
227.67
215.092
212.959
215.084
210.784
217.12
215.72
210.551
230.545
213.903
211.838
223.134
212.066
210.346
215.782
213.76
229.384
214.092
212.128
211.689
214.814
211.738
210.929
216.574
210.297
216.129
214.465
213.091
214.784
211.979
219.346
217.449
216.131
212.392
210.964
224.702
214.881
213.579
213.366
210.378
223.29
214.741
218.498
214.874
211.53
217.498
216.579
211.196
212.649
213.456
215.263
234.702
214.837
214.426
220.71
214.98
210.684
213.019
221.595
212.721
213.726
227.561
222.398
213.854
212.308
226.837
211.237
215.973
217.967
211.22
210.965
214.797
228.296
212.953
214.08
214.277
218.027
214.123
215.478
210.908
212.109
210.459
211.885
215.135
212.668
212.305
219.887
212.074
212.433
221.768
211.548
212.032
215.253
212.032
210.183
212.257
211.946
215.556
214.592
216.423
215.082
210.388
211.425
211.604
220.909
210.819
211.867
219.881
212.737
211.943
222.339
210.141
214.226
217.358
213.241
223.736
214.294
211.557
214.288
238.998
210.629
226.457
210.912
215.376
223.204
211.628
217.186
210.548
231.236
217.2
213.408
216.517
214.559
213.851
222.552
221.363
216.643
221.58
215.023
216.05
214.776
210.265
215.168
211.619
224.058
211.334
213.587
221.848
217.425
211.384
221.544
214.941
216.613
211.135
212.647
210.454
219.539
223.161
223.487
212.644
212.691
219.122
213.664
211.617
215.191
213.345
210.53
214.508
215.671
214.9
213.013
222.719
213.453
214.238
214.064
210.254
216.317
211.159
215.011
212.32
216.638
220.566
214.475
214.204
213.052
215.313
214.724
223.822
220.681
216.999
216.82
210.749
211.157
211.825
214.179
218.243
211.236
214.507
214.585
214.893
210.615
226.384
213.92
212.797
212.884
220.007
218.882
214.857
213.621
219.458
210.428
215.048
212.448
215.003
211.607
212.644
217.394
210.943
215.294
213.048
223.602
215.733
226.533
215.502
215.377
218.773
212.752
212.37
212.71
214.511
217.279
217.328
212.626
210.778
222.012
212.953
212.499
215.043
211.235
213.273
211.159
215.471
226.154
213.371
211.831
217.727
219.457
214.309
211.383
213.642
211.049
213.694
213.693
219.84
215.184
211.338
219.802
214.225
218.037
222.564
214.781
215.049
211.608
218.352
211.888
222.123
228.636
212.87
210.897
216.078
210.67
237.361
211.537
218.726
211.911
212.69
211.35
211.841
215.931
211.688
229.388
218.03
226.886
214.627
211.899
217.644
225.913
214.65
211.993
216.029
228.976
213.296
213.079
220.378
211.147
213.799
210.693
210.757
213.673
215.666
214.704
215.33
211.566
222.17
211.921
222.115
212.097
212.583
211.418
214.339
225.314
212.777
212.05
217.253
213.378
211.474
216.621
217.963
213.069
215.278
214.555
212.558
213.507
215.654
211.74
210.627
220.909
221.358
213.558
214.232
215.151
220.13
214.761
211.135
220.294
221.006
212.1
220.03
215.268
210.678
228.752
221.49
213.217
214.95
214.797
224.442
217.872
215.013
223.027
215.064
214.273
230.311
214.92
210.585
213.175
225.345
211.633
220.199
213.822
211.227
215.174
221.255
211.363
217.088
217.003
213.519
214.718
215.392
211.175
218.473
220.198
215.227
222.721
214.609
210.417
211.937
217.78
212.188
212.402
210.641
214.642
219.435
210.388
212.751
222.457
215.002
215.205
210.893
214.628
211.238
210.977
212.186
213.233
214.789
213.799
211.149
211.83
211.08
219.981
220.461
215.204
214.883
214.795
211.446
215.285
214.896
211.169
213.515
215.033
211.538
211.91
212.403
210.588
214.502
210.533
214.747
212.769
211.272
220.675
212.162
214.963
214.08
214.204
211.726
220.42
219.277
216.171
210.826
219.723
212.363
220.249
214.631
212.574
212.377
211.646
215.057
214.369
216.895
214.643
211.479
210.511
211.726
217.256
214.755
212.577
214.499
221.307
212.274
210.579
215.112
222.2
210.877
214.036
212.525
219.303
212.821
211.249
211.98
211.653
213.809
217.403
225.521
214.843
210.103
210.015
212.838
210.582
210.672
226.463
223.353
220.657
220.225
210.228
225.039
213.932
210.544
222.675
225.832
212.302
214.728
216.207
210.669
212.909
212.869