# vtk DataFile Version 3.0
vtk output
ASCII
DATASET POLYDATA
POINTS 10000 float
-12.5496 -24.727 5.33876
7.90091 -48.237 11.8863
-7.80234 -39.1942 10.1747
1.5491 -45.8244 14.9163
12.702 -50.0797 12.0818
-3.46271 -40.077 14.2682
-11.7838 -30.7897 7.80754
24.3711 -48.9431 11.1208
16.5635 -49.57 10.8395
-12.4009 -31.8032 7.6134
-10.3958 -34.0126 7.25954
-13.0187 -31.791 7.27226
0.432153 -44.7256 14.5528
7.29671 -49.1598 12.5886
4.81458 -46.5183 13.9436
15.2383 -50.5845 10.0438
-14.9732 -27.3044 4.72348
-0.549708 -44.3603 13.5222
16.6051 -50.3097 11.2372
17.2542 -47.8387 12.9294
-15.4948 -28.1215 4.44186
1.60801 -45.0965 14.7874
8.96268 -48.6958 12.6925
-15.7936 -22.1485 3.71306
-13.1045 -31.4899 8.88438
-15.5775 -25.3378 3.41157
-13.6267 -26.28 4.57531
-0.0819255 -44.7184 15.1561
-12.091 -30.338 7.68156
9.62724 -48.4075 12.5324
-17.1853 -24.8963 2.24468
13.617 -47.0145 11.7533
-11.7585 -30.3857 6.44299
-13.1662 -26.6191 5.56896
9.02827 -50.3168 9.15632
6.38327 -47.1288 12.6255
-10.9591 -35.5017 7.73816
11.4513 -50.4865 11.7279
15.3727 -49.8231 10.3959
1.48022 -44.2021 13.257
-14.4429 -27.9415 4.14612
-13.8829 -27.9355 4.74406
7.42521 -47.443 12.7372
6.88436 -49.749 9.67889
9.19896 -47.7831 12.2143
-2.44914 -45.8634 10.0165
-11.8397 -33.8577 7.22158
-1.73427 -46.5278 9.88102
19.191 -48.1155 11.2447
-15.6478 -24.5263 3.81602
11.4073 -47.3636 12.5923
-11.3324 -36.4222 8.73619
-13.006 -30.4871 7.20582
-14.6365 -25.8642 4.34341
-1.5837 -43.5662 13.1889
-13.2566 -28.2617 6.051
2.72268 -46.6742 13.9779
-12.7095 -23.6323 4.53115
-12.0586 -32.1769 8.28589
16.9512 -50.0031 10.587
-10.9515 -36.3331 9.25399
-12.4813 -34.6137 8.46126
-9.8893 -29.2069 7.10057
-5.60566 -42.3175 10.1406
-13.232 -27.2443 6.12193
-10.5501 -25.5204 6.72539
-1.4148 -43.3403 15.6875
-10.7579 -36.179 8.70144
-3.1896 -43.1022 17.98
1.45194 -45.3431 14.8273
4.60645 -47.9764 13.6607
-11.5076 -30.5964 5.68642
4.54228 -46.9929 12.6363
-11.5134 -29.9523 6.99654
-1.22245 -44.3596 14.4693
-13.1143 -33.1197 4.92856
15.0486 -48.7654 10.9898
-17.4633 -23.1342 2.94914
13.2788 -48.009 11.1488
-15.5726 -26.86 4.24557
-15.8449 -25.1636 3.69074
-14.0564 -27.8132 4.33246
-13.2671 -31.6385 6.70161
2.58565 -47.2879 13.0442
15.236 -50.1734 10.1334
1.02179 -45.2414 13.6984
-14.4579 -29.4159 7.43363
-4.98895 -43.6909 9.59661
-13.329 -28.2972 4.86683
3.06389 -46.7902 14.4632
-16.4296 -26.5369 3.86659
-11.4294 -32.0546 7.37568
5.37713 -46.9134 12.4607
-3.54571 -43.0667 19.2422
-12.0741 -27.962 6.3974
-13.9839 -28.9537 6.17411
-19.4037 -23.6568 2.74673
-11.8404 -34.523 6.15616
5.91748 -49.1496 9.62012
-17.7067 -21.0383 2.95386
-12.9078 -29.8626 6.63089
-11.184 -27.8557 6.39642
-15.3948 -23.9087 4.37822
9.87336 -49.1133 11.0539
-11.8667 -28.9583 6.51429
-14.0176 -29.1899 5.70096
0.609621 -44.3186 13.1917
2.62972 -48.1349 9.14839
7.42805 -47.8003 12.5692
9.64751 -46.6674 12.2109
-11.2552 -33.7255 7.30209
17.0426 -48.2445 12.123
15.4219 -49.1881 12.6209
12.0085 -49.6129 11.8043
-11.6357 -34.5452 8.41644
18.1664 -50.4352 10.1187
-13.6249 -29.7732 4.80496
-6.73055 -38.6689 10.8505
-12.94 -25.8891 4.7411
-12.1314 -32.8823 7.55807
1.05657 -44.6313 13.5848
2.00525 -46.702 15.7067
-12.2838 -33.8106 7.53625
18.0531 -48.8614 12.7504
-13.2228 -28.4681 6.0983
-15.737 -27.6964 4.44812
21.5771 -51.3431 10.2617
-2.07947 -43.076 14.1207
-11.9299 -28.3215 6.27743
-11.6151 -33.2475 8.66201
3.65022 -49.1607 9.18158
-14.7455 -29.4246 4.93783
-12.3161 -26.9097 6.2077
10.4287 -48.4473 12.4453
5.15319 -47.8294 10.7936
-13.6057 -31.119 5.23754
-12.2111 -35.7831 9.13397
17.107 -50.0056 11.2934
13.0812 -48.85 11.7593
-11.1411 -32.2057 7.22579
6.01053 -46.37 10.7386
-14.034 -27.5022 4.89151
2.16754 -43.5423 13.0518
3.7028 -46.4816 17.0521
-11.761 -35.1958 9.14245
1.33599 -44.4615 14.5329
-11.4811 -30.8547 7.7802
-10.5835 -28.4533 6.50562
-16.4739 -21.5155 3.32672
-11.8324 -28.1682 5.68742
8.56887 -45.939 12.8519
-15.9133 -27.0246 4.27498
-16.298 -30.62 3.74766
-0.811654 -43.6625 15.3072
26.4237 -50.0905 11.8222
-6.74761 -40.743 10.0188
-16.2794 -23.9711 0.755834
-3.66426 -44.3465 10.1251
2.8862 -46.5067 10.281
20.9731 -50.4624 11.4874
-14.2696 -26.2138 4.29358
11.5381 -48.4271 12.8393
-13.4809 -31.2644 5.47664
5.89582 -47.7557 12.1701
2.8787 -46.4236 14.6876
1.70709 -45.9459 15.0213
-10.5803 -29.6975 6.52499
-13.2929 -25.405 4.94733
-2.84317 -44.4947 10.2734
-12.5949 -28.7537 5.40876
-12.1097 -32.1831 7.28558
-8.43301 -41.0235 7.33113
1.27915 -46.4344 15.533
4.19875 -47.8044 16.5187
-3.92263 -44.9621 10.2772
11.3675 -49.1582 11.795
-12.3937 -32.2877 6.27142
-12.3365 -32.3789 6.31839
-12.7703 -30.3916 6.96679
-12.9536 -27.2111 5.36185
-11.3718 -36.7553 8.49879
-12.2067 -31.5836 5.93339
-11.0969 -32.581 8.92234
-11.4237 -28.6291 6.99432
-12.7126 -34.0532 8.21087
10.1964 -48.581 12.2292
-12.124 -33.0397 8.01727
18.9858 -49.9362 10.6647
6.96509 -47.7895 12.2035
-5.76466 -42.6072 9.92662
-1.54498 -46.2976 9.54336
13.6438 -48.4129 10.4043
-2.84854 -46.2508 10.0904
20.4239 -50.1745 11.9967
5.01629 -48.303 16.2824
-11.2721 -35.5066 7.68913
-2.09372 -47.4476 5.97945
1.78027 -45.4275 14.2748
1.8589 -45.8044 12.9599
-12.495 -31.5419 7.83883
-10.6281 -33.0439 7.39581
4.38232 -46.9648 12.9268
-14.5236 -26.8624 4.10419
-14.8637 -32.0016 4.5654
13.5664 -49.0108 12.8505
19.5901 -48.3759 12.894
-10.5824 -32.2525 7.3444
-12.2562 -31.2984 8.0554
-11.1524 -31.9141 7.79341
1.01438 -46.3581 16.3204
-16.8628 -20.2826 3.03093
-15.3915 -26.414 3.95429
-13.0727 -27.4996 4.99384
-10.7035 -34.8205 7.55517
-14.4539 -27.1755 5.0706
-12.378 -26.8849 1.6094
-9.47436 -38.7664 8.42869
-8.53248 -40.3812 9.4633
7.53279 -48.5517 12.3713
-15.3913 -25.9865 3.9912
16.7069 -50.8039 11.9372
15.3172 -50.8043 10.6575
-12.6073 -30.462 6.46156
-9.91722 -37.7159 7.53205
-12.1915 -35.0615 8.29277
-10.8652 -30.5969 7.56402
-18.3402 -24.3808 2.95172
-11.7924 -28.9081 7.22885
-11.4773 -35.3855 7.27118
4.60191 -48.1494 10.884
6.39613 -46.9362 13.0176
-11.2969 -35.8346 9.08446
-12.205 -32.8671 8.20889
-12.4657 -32.3045 6.42633
-14.0612 -27.3923 5.13561
-11.9025 -26.3757 4.4155
-10.6544 -36.242 8.1437
8.5733 -50.4705 12.3181
-12.9453 -31.1762 6.06856
-13.2749 -27.8147 5.43175
8.58243 -48.3209 9.91139
11.3335 -51.0225 10.9389
-9.59357 -30.8124 7.55337
15.2189 -48.2191 12.037
6.31044 -49.0517 9.83011
-14.6904 -31.0088 4.6387
-12.5912 -28.5859 5.72109
13.446 -49.5357 9.74708
-19.7959 -22.5058 2.75826
-11.0833 -34.2425 8.25048
-11.2 -36.6973 8.21864
-13.5212 -25.7279 4.33737
2.30712 -47.7927 10.1126
13.3231 -49.7041 11.9571
-15.1553 -28.7475 3.94556
-18.0446 -22.4097 3.02849
-13.7045 -28.9934 5.76749
-0.844344 -44.6433 13.4836
0.0483423 -44.8831 16.2183
-11.1948 -33.5211 7.04194
-12.8315 -30.4285 6.04143
-11.7093 -34.2876 7.57655
-13.7751 -33.024 5.06211
-0.718122 -44.19 13.6978
-0.270495 -44.784 10.4794
-10.6034 -36.1318 9.28749
-15.4296 -23.3001 3.63894
3.78319 -47.1991 12.8755
-14.9043 -29.0107 4.62852
-12.1249 -25.6804 6.08564
-13.9547 -22.9437 4.51542
0.229654 -43.8153 13.7501
-10.1238 -27.6172 6.98875
7.84913 -47.6059 12.7525
0.768205 -43.6533 13.1469
-9.78966 -37.3722 7.58527
-12.3258 -27.7415 5.91622
12.6044 -48.1488 12.2018
-17.6104 -24.1993 2.83989
-13.0123 -28.9524 4.84283
-12.8526 -32.0727 7.95057
-17.2871 -24.2726 2.97388
-13.8697 -29.3037 5.13879
-3.18074 -42.9876 18.59
-9.96603 -37.8334 8.35302
12.8214 -49.2595 10.6725
-1.14039 -44.9275 14.0829
13.3056 -49.9262 10.6931
-12.9234 -25.3599 4.80797
11.3741 -49.3887 10.7121
-11.6039 -33.7572 7.68274
-12.272 -27.392 3.13619
21.0238 -50.8652 10.2965
0.999481 -45.7733 14.1052
-10.9828 -34.9407 7.9665
-14.2986 -27.687 4.70193
-12.5212 -29.4764 7.11458
-14.8458 -24.3225 3.97841
-9.74982 -36.0063 7.89035
1.46087 -46.5108 10.0137
-13.6789 -34.4194 4.93579
1.81949 -44.8428 13.0343
18.57 -49.5229 11.9023
-1.43971 -43.4739 14.8129
4.98381 -45.4779 13.0575
-1.96731 -43.3384 13.7871
30.78 -50.6934 10.5395
-11.2139 -34.7236 8.17265
13.8062 -49.3575 12.7083
-13.0398 -32.1486 5.7298
-17.2005 -24.2301 3.42507
4.18568 -47.0893 14.3937
5.87312 -48.5391 13.87
-2.52661 -41.5605 11.9597
-13.6649 -31.8165 8.33351
-3.69995 -45.1277 9.55789
15.2382 -48.4597 12.338
3.7804 -46.3721 13.1941
-14.4459 -25.307 4.02524
-9.82631 -37.5406 9.04884
-11.6447 -32.4437 5.78955
8.39008 -47.4124 12.4381
18.0613 -50.0226 11.8909
2.83624 -46.4383 14.2784
-11.695 -29.8507 7.50907
-11.9573 -35.6025 8.73445
-13.959 -26.9586 4.43608
-11.6112 -36.1684 8.55147
-16.241 -25.9548 2.36508
-19.5066 -26.426 3.0654
1.5942 -45.6577 17.2005
1.72639 -45.7808 14.7113
20.0419 -51.3225 11.2724
-18.1932 -22.104 3.06145
-12.5497 -35.0761 8.62896
-11.7111 -34.3013 6.66702
-0.799202 -43.9642 13.3157
-11.7928 -29.4709 6.67866
-13.3733 -30.403 6.20123
11.2416 -47.9805 12.0819
-13.0838 -30.9134 7.46322
-12.5571 -28.9253 5.82006
6.8792 -46.2215 13.1923
-8.82373 -38.3976 9.2646
-0.66955 -45.0533 13.4333
-12.5625 -33.3834 6.82085
2.08578 -46.8946 16.4204
-0.389373 -43.0182 14.1501
5.60342 -44.8304 13.2949
-11.1264 -28.6941 7.21333
-10.4056 -27.3673 6.82265
-9.2772 -37.2016 9.32454
-14.6935 -29.8627 4.70837
9.70517 -49.4759 10.4828
12.5925 -48.8821 12.1947
-13.327 -28.369 5.34893
-10.6775 -28.8208 7.3353
-12.0106 -30.6048 7.23623
-13.4218 -28.0245 5.54878
-12.5475 -29.3791 6.17946
-10.5338 -33.4515 8.03144
1.5331 -35.7193 27.4895
-12.1904 -32.5527 7.94618
-0.461447 -44.7131 15.8175
-9.86686 -40.0355 5.90347
-12.1639 -26.196 0.388068
3.82815 -46.8967 15.5754
-1.30327 -46.279 10.3423
-12.6009 -28.5258 5.82423
5.19111 -47.325 14.4332
6.40566 -47.1278 10.8728
6.20411 -46.0342 12.8795
-12.6639 -25.5625 5.27376
19.006 -50.8087 11.4311
-13.417 -30.0358 5.66971
0.747454 -44.6634 17.7748
-10.7508 -33.8145 6.91859
6.04397 -49.1093 12.447
1.3434 -45.586 15.3685
7.64341 -46.1567 13.603
22.2969 -48.7902 11.5728
-12.0438 -28.9663 5.90984
3.50467 -47.4111 15.1023
-11.7934 -31.2069 6.41092
-3.3512 -42.8768 18.2169
-0.10274 -43.7245 14.6808
18.6012 -48.6535 12.2602
-12.7126 -28.0776 5.93453
-7.59816 -41.3068 9.57843
-14.7659 -26.6971 3.90339
4.56728 -46.2181 12.9567
[...]
POINT_DATA 10000
SCALARS t float 1
LOOKUP_TABLE default
254.686
209.781
214.5
212.785
211.917
214.398
232.65
211.214
212.728
233.728
236.848
236.184
213.356
212.257
212.204
215.649
257.89
213.417
211.875
210.858
259.82
213.029
211.901
269.32
224.188
268.384
259.637
213.096
233.553
211.193
275.819
208.131
243.3
251.671
219.166
210.901
232.497
211.383
214.506
212.655
262.093
257.542
211.218
216.656
209.655
214.276
236.709
214.885
210.536
266.386
210.209
224.129
236.862
261.554
213.384
247.068
212.585
262.156
228.597
213.818
220.496
226.498
239.49
213.997
247.105
244.536
212.952
224.696
212.055
212.97
212.339
249.248
211.291
239.145
213.66
254.616
211.74
273.739
210.603
261.91
266.8
260.767
240.664
212.688
215.518
213.144
235.091
217.106
256.45
212.419
265.074
235.901
210.389
211.573
244.892
245.535
275.638
244.898
217.008
275.489
241.619
245.196
262.805
211.626
243.431
249.201
212.873
219.43
211.062
208.263
236.286
209.818
212.163
211.01
227.217
215.76
256.249
211.52
258.597
234.11
213.08
211.869
234.087
211.478
246.596
259.991
215.265
213.821
245.608
225.648
218.813
255.272
246.869
210.931
211.807
252.507
221.168
211.694
210.156
237.141
211.461
256.536
211.837
210.494
221.428
213.155
232.971
244.177
272.451
250.234
210.252
261.657
264.044
213.181
209.772
214.97
284.671
213.989
213.424
211.566
261.795
211.782
250.545
210.178
212.5
212.687
243.251
257.131
213.194
252.004
236.347
233.282
212.202
210.446
213.185
210.47
244.215
243.847
238.851
253.055
225.771
247.023
224.078
240.178
228.495
210.479
230.469
213.524
210.075
215.197
217.09
214.153
213.717
211.498
210.521
232.761
240.698
212.984
212.515
231.984
235.879
212.055
262.895
257.447
212.296
210.934
236.415
230.457
232.825
211.37
275.305
264.255
255.845
234.355
255.172
278.381
226.03
218.437
211.171
264.18
211.806
213.313
242.906
233.067
227.826
234.915
273.264
238.076
236.043
211.617
211.753
221.769
228.98
242.979
254.606
260.967
229.047
212.343
245.87
252.157
216.075
212.184
235.485
209.714
216.065
257.157
249.61
217.263
276.623
228.83
228.008
261.743
214.092
211.277
263.187
274.145
248.824
213.474
211.836
238.342
246.211
233.905
253.55
213.499
212.064
220.41
268.655
212.18
257.902
248.515
262.841
213.307
241.384
211.3
212.593
232.948
248.593
209.948
273.585
256.366
230.867
272.598
253.765
211.858
226.846
213.143
213.624
213.327
258.31
212.993
233.185
268.986
215.119
213.077
230.991
257.96
238.227
265.324
231.486
214.664
254.269
212.407
210.981
213.685
211.629
213.725
213.777
229.304
212.497
248.426
269.816
212.193
212.147
210.092
227.688
217.183
210.666
212.351
264.196
221.877
248.121
210.107
211.526
212.558
235.216
224.242
260.398
225.537
274.377
272.036
211.081
212.853
212.244
274.248
225.032
240.998
213.342
241.863
244.803
209.441
234.758
248.668
211.595
220.292
213.454
239.701
211.022
213.526
211.699
238.597
242.648
220.112
256.928
213.781
210.822
252.555
237.753
236.98
251.103
245.591
230.95
214.592
231.09
212.42
244.118
287.508
211.746
212.639
248.836
212.029
211.183
211.053
254.588
211.842
249.155
211.457
239.371
212.03
212.548
211.705
209.998
248.041
212.039
243.423
212.03
213.448
210.361
248.187
217.504
264.412
211.829
206.677
230.775
242.089
220.419
210.781
212.13
249.434
210.576
213.744
212.479
255.639
253.961
234.472
275.009
211.052
253.115
265.129
215.1
211.988
221.622
210.106
277.009
210.703
223.313
245.785
228.988
239.791
212.598
234.05
243.737
220.357
252.282
213.337
274.804
240.084
254.646
238.15
271.89
212.105
256.342
261.867
228.914
216.463
217.779
259.712
238.62
254.115
211.908
249.488
213.545
228.127
262.485
210.704
215.368
238.057
235.788
211.511
259.264
213.381
237.067
231.984
212.275
252.876
270.407
210.015
234.389
208.068
212.213
209.165
233.272
263.717
211.667
260.624
273.071
272.51
218.743
208.858
212.652
213.975
245.693
218.231
215.534
221.184
241.842
256.643
229.453
211.04
242.067
286.825
211.589
231.202
212.292
225.308
212.983
267.327
255.177
209.592
212.527
243.667
253.556
240.455
253.615
212.139
243.08
212.35
212.248
261.445
254.425
254.891
271.169
211.879
225.643
239.585
210.032
214.137
211.729
210.749
270.627
212.284
212.55
262.331
212.901
255.62
260.733
260.471
212.478
237.755
212.524
209.861
210.875
228.698
267.398
212.395
258.068
211.957
212.87
216.592
268.978
225.505
212.366
232.546
243.295
257.962
212.864
211.681
267.963
214.526
252.469
220
261.379
222.216
211.5
250.473
239.684
210.594
250.379
225.751
255.454
224.353
264.93
248.632
266.651
212.232
259.386
253.292
212.825
250.757
209.901
210.685
216.29
210.072
214.867
213.012
210.077
252.213
232.805
251.367
212.158
220.905
238.452
282.724
213.044
238.223
208.875
212.79
211.216
214.529
233.791
210.465
249.92
213.23
210.294
235.566
210.885
260.308
257.568
236.936
259.56
249.76
281.288
212.004
210.739
213.868
257.095
226.481
216.703
275.645
251.109
212.164
261.876
210.045
218.398
238.854
210.046
242.307
232.514
254.496
215.022
215.72
211.131
212.938
212.068
240.901
232.229
211.216
212.882
236.87
215.632
218.002
239.624
211.403
215.541
232.387
210.809
212.981
247.096
212.186
261.323
275.478
255.654
230.454
230.42
213.953
213.43
261.852
235.249
253.417
212.563
236.908
212.267
227.379
223.712
211.753
253.366
236.509
255.978
211.174
208.787
213.27
213.182
212.582
273.249
241.064
259.201
243.208
250.457
279.337
236.408
249.568
211.841
235.75
268.338
230.808
216.819
221.993
231.017
232.606
211.616
211.661
238.622
212.282
238.679
240.953
212.099
210.33
212.694
210.787
211.467
210.443
209.848
211.848
264.356
213.857
236.697
266.488
211.601
212.991
254.114
287.789
211.495
215.465
210.937
267.234
216.355
239.177
233.391
245.684
233.267
221.495
236.834
210.615
243.149
228.016
211.739
271.939
212.999
213.207
213.786
264.673
275.145
211
261.876
211.519
258.778
251.407
210.693
233.903
213.278
212.549
230.36
210.022
211.84
210.614
236.915
241.09
260.424
214.271
213.983
242.702
214.057
233.973
211.222
261.147
263.016
236.165
210.336
242.715
210.695
242.19
246.975
270.256
264.434
252.861
241.768
214.68
229.07
239.639
212.757
212.03
222.737
212.343
209.75
237.562
209.738
249.909
255.868
247.3
212.224
215.215
256.219
249.774
268.835
227.058
243.995
258.841
248.512
254.271
217.092
238.179
254.793
220.795
210.912
211.044
243.645
212.703
269.449
257.643
210.091
231.938
265.379
211.353
235.233
210.28
234.702
251.108
258.429
236.899
214.439
213.636
218.532
229.602
250.874
232.774
221.689
256.073
220.271
266.491
251.558
231.226
210.33
256.557
214.713
211.892
212.469
216.781
222.973
250.779
215.914
209.722
240.288
212.306
236.228
211.636
213.171
269.34
259.53
259.047
269.792
262.568
274.486
211.378
259.469
244.297
249.455
257.119
210.934
230.902
228.006
211.69
245.292
212.234
212.964
212.272
276.86
263.705
211.552
232.597
217.966
213.317
268.664
210.742
265.66
243.471
233.629
211.973
248.395
278.682
215.006
212.101
209.13
230.712
249.06
239.174
215.031
210.823
217.608
212.564
220.382
231.126
253.5
264.534
213.146
210.278
230.466
213.079
253.689
244.717
213.426
277.47
215.101
212.108
209.669
209.971
284.997
236.062
214.984
212.594
210.626
242.532
212.376
236.599
260.354
220.112
213.789
252.167
212.494
235.328
211.895
211.538
283.264
256.886
211.573
212.516
244.259
244.529
210.095
234.59
263.399
239.686
248.33
215.428
210.483
245.168
213.871
238.651
212.962
243.959
210.491
212.707
211.956
240.38
211.543
213.958
210.398
269.141
244.27
210.763
211.733
213.391
216.44
211.505
233.955
260.188
214.642
221.856
214.925
231.135
212.463
212.346
246.853
225.999
211.825
280.248
212.941
264.245
212.721
246.349
236.543
259.45
212.414
272.662
210.556
212.578
247.612
234.75
246.31
212.446
217.154
231.304
210.996
210.327
238.302
232.444
272.707
265.87
211.51
256.668
211.751
211.308
247.859
233.518
207.548
222.822
268.646
258.857
211.755
210.183
210.532
211.681
257.972
211.773
258.71
212.952
232.946
259.063
219.659
210.971
243.744
213.579
211.698
212.709
242.578
213.286
211.921
212.371
227.737
226.363
257.403
211.081
213.198
212.142
267.182
264.546
213.019
245.018
240.849
210.934
212.398
245.027
213.471
212.877
212.367
212.423
266.772
236.152
230.475
247.431
212.668
242.661
211.934
214.504
252.154
271.449
254.735
211.324
210.706
212.204
244.218
274.69
256.803
235.091
213.78
215.832
232.881
210.938
226.194
210.69
212.534
219.922
253.582
212.208
224.958
233.076
245.577
291.137
213.237
209.845
251.565
279.41
231.331
272.019
258.467
257.461
253.167
283.538
240.758
224.921
255.379
212.493
212.748
247.885
233.19
244.766
269.125
257.511
231.434
228.149
256.465
210.305
212.497
219.216
251.957
235.4
213.66
212.612
210.373
252.271
212.072
238.446
256.439
212.262
239.762
238.717
212.581
210.409
270.729
253.351
272.045
210.174
213.95
226.388
230.938
242.459
263.382
245.155
216.766
243.368
211.813
222.798
258.956
265.35
212.697
272.347
263.005
212.219
248.378
244.094
212.577
212.154
235.326
208.776
261.753
213.123
257.779
212.552
266.879
279.404
233.672
271.403
210.118
212.012
266.113
269.625
211.658
211.209
253.691
214.194
244.28
211.459
239.449
235.61
233.599
212.636
252.528
221.58
264.931
213.913
210.962
213.501
214.893
250.698
212.431
213.184
210.575
252.549
239.051
261.317
238.612
229.544
291.254
212.638
212.355
210.628
261.497
220.194
212.326
235.793
234.562
211.199
220.472
212.252
236.516
212.644
216.388
211.7
226.903
229.461
210.541
213.169
245.793
231.516
237.595
252.745
272.159
229.822
255.427
211.966
246.744
212.509
254.518
231.467
248.156
259.614
254.765
250.258
264.561
236.401
253.364
257.516
255.206
211.669
211.651
209.309
210.639
234.725
209.916
241.069
280.914
229.125
211.555
224.406
257.801
211.865
211.081
209.885
242.651
217.57
260.218
213.417
210.472
211.342
234.324
230.139
257.017
212.392
242.716
234.09
208.638
253.499
250.66
257.602
234.282
212.449
259.355
247.465
221.669
213.577
209.301
219.926
238.566
213.526
259.23
214.634
212.349
240.571
212.707
237.905
248.992
262.433
230.068
211.998
235.249
265.971
262.68
212.177
215.305
231.075
277.323
211.96
211.273
258.122
255.851
224.229
251.998
218.866
238.4
214.922
279.305
231.705
254.047
211.243
226.835
252.746
211.3
212.898
279.735
236.79
210.931
213.285
213.318
210.475
270.95
246.166
213.476
212.77
212.902
224.668
216.728
211.902
212.565
274.281
222.868
249.55
215.448
213.345
280.276
212.434
214.996
211.678
212.342
213.252
247.468
251.937
214.411
230.538
211.277
210.902
212.561
256.318
239.522
212.786
211.757
257.404
256.182
212.397
236.078
254.579
212.584
212.466
236.337
246.151
234.333
263.803
219.858
235.533
210.418
247.819
241.181
275.751
210.473
212.936
271.125
210.915
241.207
218.873
210.347
210.516
210.396
261.697
216.401
233.926
213.036
226.252
265.744
255.918
275.77
270.662
213.903
214.063
209.6
212.83
248.237
235.337
247.166
261.794
211.263
251.389
211.806
233.635
233.363
230.054
221.673
209.564
212.791
239.001
219.102
210.264
212.077
234.536
212.667
234.331
209.081
246.255
212.999
231.028
255.882
224.485
215.987
218.474
242.218
256.896
228.873
211.712
264.856
213.253
239.166
212.493
260.874
218.507
236.258
210.866
212.237
212.223
216.593
248.57
236.239
212.324
209.842
218.912
218.103
242.838
225.405
212.04
213.114
237.98
233.218
260.569
213.284
255.256
227.537
232.395
231.047
242.377
235.818
257.391
241.864
229.354
212.634
233.581
243.905
275.262
222.12
259.375
265.807
212.043
216.862
264.436
249.498
243.512
211.226
245.953
255.964
212.189
254.667
213.221
263.274
242.12
258.207
213.205
209.686
211.028
260.991
210.769
239.411
212.237
210.25
213.679
213.183
271.742
238.461
211.479
212.293
214.57
230.252
258.484
266.378
211.401
211.05
237.284
237.195
245.061
233.908
213.141
210.978
210.866
245.229
212.511
227.43
249.887
239.067
212.927
210.613
258.532
258.793
213.544
213.037
288.495
214.266
263.594
210.38
270.52
249.773
210.194
247.416
286.625
239.163
217.971
252.708
212.043
224.772
263.561
234.24
212.195
213.335
257.676
210.251
264.819
247.561
211.773
272.975
245.816
210.56
212.423
212.262
210.973
218.689
241.774
212.536
253.001
218.996
229.275
212.21
255.158
209.446
246.681
209.094
276.961
228.071
212.518
218.374
209.607
282.112
267.635
212.613
211.869
239.421
249.248
239.896
215.365
211.323
236.696
222.659
262.14
260.509
212.798
213.05
211.997
243.333
219.296
275.59
215.224
244.066
241.64
240.061
235.509
240.61
214.068
268.737
211.531
253.553
232.081
212.815
216.814
228.757
264.397
238.921
271.156
256.091
228.147
210.516
216.015
270.201
246.189
223.501
238.132
208.856
241.556
240.595
212.269
247.512
251.811
234.161
237.133
211.295
240.863
263.46
258.761
212.552
221.42
211.143
208.61
226.597
213.34
252.401
225.412
209.284
262.602
250.687
215.367
260.506
213.471
238.946
253.007
212.349
270.461
237.26
211.569
213.121
226.548
210.372
251.53
245.94
210.208
242.975
210.707
269.857
213.083
212.316
259.671
261.73
212.094
255.281
248.667
211.601
276.564
242.642
211.623
247.061
211.948
210.402
237.675
222.411
209.43
234.994
210.601
230.111
232.215
227.442
269.478
234.515
260.227
244.295
254.629
242.962
211.567
248.195
242.369
249.378
229.169
221.01
220.096
261.697
257.229
249.309
212.441
255.227
262.457
242.362
236.855
243
212.56
209.629
211.247
211.387
216.821
237.162
242.939
212.799
212.895
212.334
258.236
237.523
217.715
239.068
214.317
254.241
233.412
244.739
210.535
219.905
245.198
217.299
234.503
231.478
254.619
211.34
212.256
227.773
233.081
210.388
285.379
239.078
211.67
212.447
264.131
244.848
237.114
211.456
227.658
225.184
246.135
276.7
235.58
213.423
211.522
261.74
211.409
208.963
212.829
260.696
261.262
266.886
231.505
227.462
209.694
227.194
223.695
218.839
258.601
255.717
232.196
264.844
240.289
212.796
231.795
238.518
211.785
247.38
247.459
216.637
268.343
262.97
270.946
213.488
213.689
215.648
212.04
211.586
242.651
212.588
232.208
210.823
212.285
236.659
212.798
208.749
258.472
237.89
255.262
248.538
226.045
258.678
211.572
238.269
213.637
245.162
209.908
272.63
240.923
247.026
244.368
260.197
213.565
244.565
216.338
233.923
231.381
216.326
241.718
213.717
212.498
263.957
274.412
239.747
213.775
214.005
212.235
265.133
260.952
246.744
214.086
244.109
217.304
233.783
208.122
211.843
216.888
211.731
232.947
229.139
210.597
215.632
211.129
257.064
213.603
251.79
211.592
225.23
272.655
209.019
211.109
261.343
212
209.92
254.198
231.346
278.105
271.691
214.62
245.583
210.996
261.193
227.101
238.265
216.626
209.782
259.444
216.103
243.131
213.186
212.799
276.097
260.648
243.418
211.657
212.298
209.248
211.948
272.079
238.691
229.32
266.931
244.166
212.073
212.202
256.498
251.042
212.528
270.893
232.392
213.726
246.636
210.6
210.754
259.425
236.665
243.584
213.345
238.831
216.658
213.715
245.825
242.773
255.11
284.469
234.303
292.192
212.332
212.499
239.463
261.699
260.437
241.888
261.413
214.731
212.585
248.477
249.771
230.791
213.818
250.71
211.183
212.12
225.862
212.73
260.699
211.941
230.813
247.999
213.396
212.089
211.598
231.512
214.214
210.444
249.07
235.58
264.016
210.603
249.619
259.378
228.751
212.499
213.372
224.793
259.202
232.936
215.867
269.354
240.168
255.221
213.321
237.919
229.808
246.706
240.012
238.286
210.755
210.881
231.121
214.446
211.428
211.333
214.69
232.534
257.846
229.58
255.662
220.812
214.745
276.193
215.998
234.004
214.587
250.847
211.775
239.868
221.195
210.562
238.438
210.87
283.258
211.687
213.463
232.372
260.509
210.437
271.996
212.395
231.806
212.146
214.077
261.444
254.217
228.689
233.156
228.537
242.117
213.128
210.941
251.157
261.131
258.072
235.638
250.796
244.395
240.87
259.076
216.524
237.215
234.755
248.831
248.585
209.234
235.395
227.566
214.23
212.344
238.351
243.145
230.096
225.452
217.708
234.758
275.358
263.353
213.629
219.151
254.294
272.533
207.829
256.947
217.249
265.442
271.227
274.345
252.679
211.098
210.996
239.037
213.121
238.715
234.731
266.195
208.894
244.204
212.83
211.082
264.293
243.198
224.594
235.802
212.793
247.016
228.259
230.042
213.809
211.93
215.357
232.725
226.886
213.071
260.518
213.647
249.221
213.603
212.735
238.054
210.931
255.528
210.133
258.548
277.407
263.106
265.773
267.987
215.036
222.799
212.375
255.656
247.271
221.134
212.564
209.416
236.134
237.804
256.886
261.706
239.585
223.551
212.912
212.126
275.944
209.339
221.185
266.458
209.204
211.146
246.125
234.657
287.646
253.938
250.944
211.316
268.346
236.408
240.032
241.981
238.2
212.466
258.253
214.201
211.568
213.936
231.817
231.803
213.078
212.351
211.351
257.058
211.309
276.356
246.611
258.163
212.427
244.199
236.185
230.621
233.109
240.592
212.811
261.972
211.118
214.995
260.447
243.219
212.782
214.391
212.784
265.913
246.837
215.142
211.498
212.616
246.463
212.988
271.216
212.752
252.283
210.439
238.205
247.886
224.741
287.255
260.534
238.433
210.681
213.687
273.128
240.608
213.65
226.114
211.866
257.801
211.84
249.455
212.884
217.481
233.763
273.781
213.238
209.529
210.134
212.564
254.295
211.799
236.766
262.272
211.217
225.131
231.761
283.741
211.665
210.912
237.045
266.808
236.96
235.739
256.245
210.712
251.476
227.525
229.195
214.566
210.346
273.876
211.57
211.933
248.262
243.328
224.406
251.887
224.864
210.554
213.291
212.492
235.482
210.948
210.905
266.197
247.531
230.386
276.85
217.247
243.329
211.708
210.329
215.069
211.528
217.532
234.445
242.349
248.149
210.393
214.416
214.711
227.7
259.735
210.537
213.045
236.283
211.383
234.884
260.552
217.068
212.04
250.119
208.299
263.888
229.961
214.152
210.653
256.475
213.121
257.094
212.894
286.852
278.737
215.88
251.344
233.442
240.435
257.646
210.744
255.094
241.896
207.844
267.351
261.563
238.093
259.755
212.356
245.059
213.718
210.597
211.942
228.667
269.894
214.41
211.583
265.345
256.626
222.307
262.727
212.073
243.383
213.349
229.189
224.178
255.462
259.844
239.182
211.154
239.963
247.932
209.947
218.899
212.02
235.38
219.417
246.564
246.264
244.455
237.227
276.022
243.453
209.105
211.249
219.305
244.693
211.457
236.914
231.56
254.043
259.888
213.449
242.843
210.902
212.918
238.036
273.852
246.412
256.298
255.529
243.273
214.196
213.583
236.989
256.386
215.801
234.632
211.999
213.185
213.461
254.935
208.792
231.261
210.71
275.966
259.484
212.741
237.143
256.987
223.672
212.197
212.354
209.661
214.315
238.923
238.17
236.773
212.933
240.797
260.93
245.458
265.838
236.899
211.73
261.48
211.529
233.32
242.172
212.86
244.058
259.084
212.037
207.516
278.344
245.614
211.345
212.405
215.992
250.296
222.383
239.558
256.32
210.263
214.744
247.76
247.163
211.179
216.977
211.962
211.421
208.976
211.745
261.877
246.185
212.6
245.767
240.872
252.396
270.447
211.967
251.036
214.17
261.029
232.56
275.788
286.938
211.184
237.101
256.156
212.497
252.446
208.647
247.458
238.381
210.659
226.334
210.216
237.868
212.726
256.954
261.752
258.316
213.698
237.999
258.121
269.494
213.616
217.94
254.342
278.016
211.819
235.973
242.035
215.734
210.558
209.088
218.921
235.408
285.041
213.919
252.311
213.789
292.012
237.747
258.1
212.278
229.431
212.954
241.832
263.22
236.82
213.809
244.57
234.078
220.775
248.139
252.792
211.237
212.777
212.95
214.316
240.06
253.777
214.803
217.162
259.378
248.764
210.1
238.461
212.867
262.252
213.012
218.76
290.431
264.616
208.156
253.601
234.938
212.294
265.755
266.531
209.477
212.014
212.953
249.281
214.739
237.462
270.132
212.534
233.223
258.871
212.808
215.993
226.35
266.834
229.638
247.916
236.829
217.513
212.302
254.178
209.964
240.545
243.828
233.248
212.725
237.215
211.945
250.93
256.943
212.76
277.743
213.537
210.387
243.118
238.575
214.306
233.045
218.581
211.527
265.416
217.517
226.145
265.738
213.645
238.28
215.564
212.655
238.294
210.942
212.389
209.291
256.398
210.879
232.304
212.978
214.598
255.322
248.716
212.876
212.416
212.208
220.698
233.893
236.38
215.283
230.035
212.837
212.542
213.101
220.758
209.351
242.357
229.244
234.543
211.945
213.53
260.791
212.164
212.523
250.987
210.271
210.623
256.772
251.286
233.071
219.386
262.411
211.568
257.216
212.161
211.996
236.235
213.079
213.132
211.612
234.236
242.005
211.939
226.366
215.297
258.841
213.24
229.441
210.796
240.174
212.054
236.767
243.314
254.801
215.431
243.346
241.394
268.6
231.378
211.781
220.196
235.974
210.712
239.158
275.834
239.016
211.93
210.607
226.229
217.575
214.336
254.256
265.9
244.357
253.93
219.068
272.826
211.309
213.466
260.331
250.182
214.938
209.397
243.581
228.654
209.726