# vtk DataFile Version 3.0
vtk output
ASCII
DATASET POLYDATA
POINTS 10000 float
-24.5399 -28.8486 6.40038
-20.311 -33.6873 11.4191
-20.8737 -30.0773 8.98779
-22.1851 -36.6741 14.3723
-18.5423 -33.651 10.9734
-21.9853 -34.7507 13.5624
-22.3062 -27.9316 7.03741
-14.9516 -31.9797 10.6776
-17.4701 -30.8516 10.2488
-21.6358 -29.5598 8.25962
-22.4028 -29.4502 7.06664
-21.9365 -30.225 8.10691
-22.3013 -37.1129 13.9848
-20.0044 -36.2574 11.2683
-20.5575 -35.5323 12.5983
-18.593 -33.4961 9.62427
-23.1228 -32.4192 7.35751
-21.2007 -35.9442 13.5122
-17.8549 -33.2838 10.5881
-15.8651 -32.6363 11.6909
-23.5434 -35.9043 6.97908
-21.6619 -36.595 13.8781
-19.1699 -33.1221 11.7505
-26.0663 -29.0969 6.18067
-21.8285 -30.2885 8.97451
-24.2417 -29.3465 5.76601
-23.63 -31.9406 6.87447
-23.3451 -37.1079 14.8833
-23.1156 -29.4479 7.63507
-18.7845 -33.1754 11.7705
-25.474 -31.649 6.24805
-15.9435 -28.6973 10.3286
-22.3019 -29.1314 6.95242
-24.1126 -29.2151 7.1749
-18.4256 -33.2608 9.52566
-19.961 -33.4655 11.8874
-20.5793 -30.2399 8.08856
-19.3663 -34.6818 10.9197
-18.4968 -33.3726 10.0449
-20.3416 -33.6839 12.1984
-22.8108 -33.3353 6.90228
-23.2991 -31.6237 6.98063
-19.3297 -33.5084 11.1351
-19.8884 -32.4882 9.80903
-19.0934 -31.8628 10.5072
-20.1899 -30.945 9.35748
-21.1387 -29.7934 8.00864
-20.9166 -31.189 9.16932
-17.3617 -33.3975 10.2759
-24.3983 -31.9198 6.45127
-17.9778 -33.0116 11.8048
-22.2923 -32.1189 8.95098
-22.4257 -30.1505 8.18585
-23.9151 -31.6375 7.00393
-20.906 -33.8575 11.9569
-23.185 -31.6922 7.60505
-21.2434 -38.0033 13.3108
-24.6381 -28.4358 5.95453
-21.7567 -31.2588 8.60453
-17.2665 -32.9478 10.434
-22.037 -30.0535 8.66705
-21.6822 -30.1891 8.44685
-24.0141 -27.1005 6.46847
-20.2288 -30.3079 9.38611
-22.5091 -29.0982 7.33068
-24.3272 -28.9388 6.94318
-23.3152 -36.1717 15.1755
-20.6527 -29.5712 8.3571
-28.458 -38.3526 17.8917
-22.6427 -37.128 14.3567
-21.254 -37.0084 12.7048
-22.9151 -29.454 6.4141
-20.9113 -36.141 12.4513
-22.3981 -29.3253 7.25969
-22.5152 -36.6908 14.3461
-21.9152 -36.2749 7.21438
-18.1445 -32.7482 10.6682
-25.3677 -31.1152 6.02473
-18.7269 -31.3229 10.772
-23.9869 -34.0622 6.83079
-24.4949 -31.8365 6.30656
-23.5569 -33.8504 6.54872
-22.5372 -30.9396 8.25881
-20.8961 -35.4192 12.0629
-17.9436 -32.1649 9.75786
-21.3931 -35.4982 13.1883
-22.2449 -30.8879 8.83761
-20.7989 -31.4309 8.64587
-23.0679 -31.4014 6.99431
-21.6475 -38.118 13.7596
-24.9041 -32.3687 6.5604
-22.4563 -28.6113 7.39764
-19.212 -32.0846 10.9556
-30.0009 -39.0135 18.9728
-23.5875 -30.3391 7.69385
-22.0614 -29.6037 8.08406
-25.3926 -31.9777 5.74848
-21.4178 -35.7233 7.79633
-18.2086 -33.7807 9.95034
-26.0801 -30.1419 5.87668
-22.4111 -30.4719 7.59904
-23.0498 -29.6615 7.35033
-25.7222 -30.7305 6.76138
-18.6743 -32.9793 10.7527
-23.1344 -31.2532 7.52956
-22.9365 -32.1511 7.66985
-19.8707 -34.1549 12.2941
-18.9667 -31.62 9.12118
-18.9226 -33.4668 11.444
-18.1619 -31.4368 11.6057
-21.5817 -31.5894 8.26367
-16.3938 -33.355 11.4094
-17.2407 -35.0772 11.8623
-19.2518 -34.1717 11.1598
-21.7663 -30.2293 8.51136
-18.773 -32.5945 9.65047
-23.0168 -33.6161 6.85075
-20.4451 -28.3516 8.43222
-23.8062 -28.4318 6.23437
-21.4098 -30.259 8.10863
-20.6623 -34.6445 12.9159
-23.7879 -38.0322 15.075
-21.2664 -32.0867 8.97334
-16.7085 -34.1594 11.1881
-22.6914 -29.8483 7.81871
-23.4813 -33.1898 7.09055
-18.7582 -34.3767 10.4332
-22.0211 -36.0042 13.6485
-24.5381 -29.8261 7.66848
-22.2267 -29.9415 8.42859
-18.9204 -31.1797 9.20963
-22.5471 -35.0086 7.31596
-24.0321 -29.8525 6.94371
-18.4682 -32.9518 10.9562
-19.4326 -31.3689 9.71323
-22.1012 -34.5619 7.45575
-22.516 -32.9077 9.29449
-17.7851 -33.5165 10.3414
-18.6204 -33.6374 10.8415
-21.8323 -28.5072 7.27185
-19.9272 -30.4506 9.74074
-23.7315 -34.1797 6.98704
-19.7594 -33.2852 12.3555
-24.1385 -39.097 16.3304
-21.5356 -30.3389 8.78437
-21.8236 -37.2042 14.0056
-23.1013 -27.8982 7.13492
-23.8488 -29.933 6.87819
-25.4812 -29.9658 5.86628
-23.0925 -29.191 6.66679
-18.5973 -32.9006 11.8359
-24.2216 -34.8566 6.80562
-24.795 -36.1929 5.92404
-23.3375 -36.7294 14.9764
-15.5009 -35.4637 11.0438
-19.6326 -28.5847 8.8336
-24.9095 -31.1921 6.27614
-19.3422 -29.0545 8.90947
-20.8608 -29.9472 9.1587
-17.9137 -34.0007 10.2168
-24.3448 -29.3744 6.66569
-18.1158 -33.1939 11.0854
-22.8155 -35.395 7.17483
-20.3076 -34.0632 11.3784
-21.9559 -36.9074 13.4291
-22.5777 -37.3248 14.4075
-23.0654 -28.1848 6.68449
-24.611 -29.2313 6.68133
-21.1004 -32.7341 9.95604
-22.8758 -29.9043 7.11794
-22.1611 -29.7631 8.25695
-21.1019 -35.6308 8.28739
-23.4608 -37.8917 15.0869
-25.0339 -39.7915 16.5162
-21.4028 -34.5896 9.85007
-19.6237 -34.4256 11.2276
-22.4313 -32.3553 7.85571
-22.0906 -31.1001 7.80457
-21.0167 -29.2586 8.10655
-23.3695 -29.9035 7.35961
-20.5295 -29.8787 8.72928
-21.5419 -28.5723 7.27888
-22.1079 -27.5245 7.35483
-23.7299 -29.6207 7.39587
-21.4531 -29.8396 8.57839
-18.4557 -32.6175 11.1285
-21.0851 -29.185 8.33584
-17.8157 -34.623 10.6162
-20.0927 -34.7178 12.127
-20.4699 -29.064 8.60184
-20.1844 -31.9384 9.02372
-17.0829 -29.5662 9.67056
-21.0928 -32.936 9.56926
-18.8058 -35.1581 11.1226
-23.7699 -38.9085 15.4748
-21.1668 -29.5705 8.19344
-21.5595 -42.5822 6.88986
-21.5558 -36.6455 13.3664
-21.0868 -33.5692 11.6631
-22.2267 -28.7685 7.90631
-22.1776 -28.5818 7.23332
-20.4923 -35.0493 11.5524
-24.2722 -31.6802 7.05207
-22.669 -37.4774 7.03505
-17.0353 -33.1036 11.5575
-15.3979 -34.196 11.1448
-22.1621 -27.9137 6.77605
-21.4019 -27.904 7.3708
-22.0888 -27.9919 7.17494
-24.9549 -38.1662 15.7172
-25.5675 -28.5548 5.42678
-23.7523 -34.1582 6.61295
-23.8535 -29.8103 7.34832
-22.1934 -31.6202 8.14783
-24.3664 -30.7576 7.26044
-23.3004 -30.7083 6.93773
-20.1289 -28.9317 7.95551
-21.3458 -32.4912 9.21465
-19.9704 -33.0868 10.5747
-23.624 -32.1297 6.78189
-18.3246 -35.4609 11.1048
-18.4314 -34.13 9.69593
-22.4696 -31.426 7.49654
-20.2629 -30.8263 8.28968
-21.7427 -31.4163 8.84879
-22.5334 -27.859 6.91369
-25.1138 -31.5161 5.88708
-23.5831 -29.4562 7.62079
-22.0348 -32.1132 8.69079
-20.4728 -33.0277 9.83915
-19.0578 -33.8485 12.2405
-20.6566 -29.134 8.59274
-21.8993 -29.4013 7.96355
-21.6185 -32.9617 7.73925
-23.6921 -30.2523 7.72377
-24.1454 -29.5339 6.74568
-21.0532 -30.0514 8.27164
-20.6863 -37.1017 11.627
-22.1935 -32.0953 7.88321
-23.0885 -30.6162 7.7016
-19.4946 -31.0605 9.51131
-19.5139 -33.3508 10.0276
-23.2051 -27.4475 6.96872
-16.5762 -32.9461 11.4206
-18.2575 -31.4189 9.83662
-23.0277 -37.1165 6.83331
-23.317 -30.1034 6.99078
-18.3036 -32.1958 9.52878
-26.7179 -29.1951 5.57486
-21.4123 -29.1732 8.10193
-21.3245 -30.9254 9.11761
-23.7892 -29.9023 6.11618
-20.478 -32.037 9.65756
-18.2192 -31.3176 10.9189
-23.6354 -33.1258 6.43369
-25.28 -32.0149 6.2358
-23.1458 -31.3771 7.96844
-21.7009 -36.4544 12.8532
-24.2044 -37.0687 15.4515
-21.715 -31.6664 7.36819
-22.4401 -32.4281 7.87257
-20.9259 -28.9736 8.17082
-22.7689 -37.1528 7.26905
-21.5696 -34.5289 12.9087
-19.1979 -31.0595 9.51874
-21.134 -30.2088 8.45716
-25.1916 -30.7903 6.43743
-20.0765 -33.4553 11.755
-23.2571 -34.5344 6.95166
-23.9617 -28.0168 6.80949
-26.053 -29.3572 6.48219
-20.4891 -33.7746 13.0133
-23.1183 -27.7946 6.52616
-19.7497 -33.9611 12.4312
-19.8956 -32.2346 11.8844
-21.1042 -31.3714 8.14372
-23.2123 -30.9886 7.62863
-17.9463 -32.4081 10.8015
-25.2731 -32.4689 5.8514
-23.2697 -30.4506 7.07799
-22.6112 -30.8604 8.43522
-24.738 -29.8839 6.46017
-23.3273 -32.8347 7.02301
-29.0315 -38.4971 18.248
-20.9628 -28.9203 8.33064
-18.7086 -32.7234 10.3682
-22.8964 -35.1847 13.3191
-19.0212 -32.6101 9.941
-24.1548 -28.5302 6.34446
-18.0949 -31.4013 9.6949
-21.5071 -29.5054 8.29103
-23.9009 -28.6739 6.84921
-18.0277 -34.7512 10.5738
-21.47 -35.6601 13.2487
-21.2852 -28.5989 7.46421
-23.3869 -33.4537 7.44427
-22.118 -30.5996 8.06183
-24.5546 -29.8164 6.10099
-20.9529 -28.4358 7.60282
-20.4845 -29.9935 9.06371
-23.1401 -38.3381 7.13637
-19.9738 -33.4977 12.3362
-17.8097 -34.3061 10.8834
-23.0737 -36.3238 14.6022
-18.5364 -32.8797 11.543
-21.5015 -35.689 13.3712
-14.9427 -33.5159 10.3191
-21.5612 -30.2897 8.05011
-17.4344 -33.4951 11.2815
-21.5732 -35.8444 7.77146
-24.924 -32.5444 6.24959
-21.3371 -37.4436 13.6371
-21.3709 -38.3385 13.1875
-20.6426 -30.6356 10.1743
-22.8021 -29.5987 8.75125
-19.3402 -29.6041 8.94607
-16.5935 -33.6491 11.5427
-20.5629 -34.3616 12.4067
-24.1416 -29.8763 6.52707
-21.2596 -28.2782 8.54646
-22.0492 -30.3315 7.2195
-20.041 -33.7735 11.7391
-18.3377 -35.0591 11.0481
-21.8865 -37.8556 13.8217
-22.5516 -28.3147 7.16664
-22.0692 -31.243 8.78383
-24.161 -31.6966 7.00077
-20.1972 -28.9011 8.49611
-24.2081 -31.5069 6.26286
-26.4611 -35.995 6.05174
-26.5073 -38.6015 17.3039
-22.2324 -37.9803 14.3562
-18.5101 -34.8831 10.8437
-26.0119 -29.6508 6.07892
-22.1455 -32.4664 9.02192
-21.3359 -33.3682 8.01647
-20.9601 -34.3187 12.6283
-22.2261 -28.8259 7.39787
-22.4536 -34.1401 7.69472
-18.6771 -32.8143 10.9026
-22.4209 -30.6321 8.30195
-22.3164 -31.0207 7.05189
-17.134 -32.7667 11.8902
-21.4334 -27.9151 8.13594
-21.5525 -36.177 13.2799
-21.6419 -33.6993 8.30333
-24.8599 -39.1479 15.994
-21.3861 -35.9636 13.6398
-17.9101 -32.5936 12.2031
-22.9664 -29.4761 7.69258
-24.0336 -27.8117 7.04613
-21.0359 -27.9384 7.9652
-23.6151 -33.6904 6.98762
-18.9062 -31.4123 9.53053
-17.8748 -34.0524 11.4856
-23.392 -29.5161 7.19172
-23.2607 -27.9436 6.95695
-22.3844 -30.0036 7.70608
-23.9825 -30.5405 7.90332
-23.4782 -30.6254 7.44077
-21.9773 -28.2503 7.25401
-25.7345 -34.9897 26.5352
-21.3286 -28.3576 7.6955
-23.0734 -36.8723 15.2965
-20.7296 -37.386 7.14999
-24.1773 -28.5252 6.5745
-22.685 -38.3339 15.2474
-21.196 -31.4898 9.15535
-23.0867 -29.6968 7.00558
-21.202 -37.9815 13.8963
-18.6893 -28.9659 9.08972
-18.7861 -33.5395 11.8946
-24.4265 -28.6659 6.63686
-18.3853 -34.4349 11.0453
-22.1959 -33.0349 7.73431
-26.1076 -38.8576 17.3668
-21.4724 -29.2624 7.46311
-21.1148 -37.5305 12.1154
-22.9033 -36.9027 14.5881
-18.5596 -34.4 12.3998
-16.6415 -34.0946 10.689
-23.5342 -29.1542 6.95981
-23.1107 -38.8324 14.8878
-22.0703 -29.6268 7.00304
-29.0123 -38.3688 18.3906
[...]
POINT_DATA 10000
SCALARS t float 1
LOOKUP_TABLE default
242.411
220.79
224.592
218.433
218.763
219.152
238.591
215.271
219.287
228.657
236.686
228.885
218.602
220.075
220.285
220.995
232.858
219.396
218.263
216.823
234.231
218.954
220.225
244.377
224.449
246.758
236.654
217.496
232.734
219.869
241.993
218.671
237.858
236.296
221.454
220.956
229.065
219.503
219.767
220.656
235.795
235.995
219.899
221.166
219.94
222.931
229.874
223.318
218.493
239.966
219.15
223.348
228.423
235.828
220.624
231.41
219.199
246.201
225.588
218.119
225.925
226.977
243.708
223.155
235.234
238.312
217.02
228.11
213.605
218.263
219.708
241.53
220.137
235.461
218.351
232.362
218.569
243.939
219.484
236.069
241.149
238.291
227.566
220.497
220.881
219.584
224.618
225.432
235.986
218.802
238.963
235.347
219.861
213.536
231.437
229.627
245.789
228.454
219.767
245.898
232.059
234.44
238.451
219.058
232.158
230.746
220.688
223.689
219.718
219.071
227.307
216.677
218.716
219.737
226.621
221.266
236.061
229.017
244.001
228.887
220.017
217.217
223.504
216.66
230.981
234.475
218.96
219.016
232.011
227.218
223.502
232.017
237.186
218.785
221.725
231.23
221.422
218.591
218.851
236.266
222.242
234.821
220.479
215.331
225.247
218.751
238.08
237.568
245.748
239.927
219.738
235.931
242.542
217.363
215.051
226.806
241.698
226.075
224.056
218.856
239.827
218.408
232.917
220.726
219.041
218.216
240.884
239.893
220.446
235.81
228.41
225.323
217.219
215.247
219.389
220.242
229.403
230.378
229.891
234.077
225.883
236.111
236.866
234.187
226.62
218.934
228.666
217.89
220.889
227.379
223.61
221.948
221.085
218.978
216.63
229.024
232.255
219.252
220.558
231.776
236.486
220.693
235.452
233.284
217.742
215.033
240.407
236.202
237.545
216.261
250.392
237.684
234.283
227.9
234.328
236.72
231.126
222.33
220.363
237.268
218.293
220.487
232.336
227.668
224.33
239.562
244.734
232.835
224.614
220.716
220.273
227.355
230.619
230.002
231.272
239.033
228.065
219.814
229.371
231.263
222.448
220.267
239.761
216.933
220.961
234.919
236.596
221.829
249.318
230.032
223.579
243.468
221.55
218.778
239.509
241.839
229.082
219.568
216.546
233.161
229.254
229.833
231.667
219.731
222.391
226.954
240.695
220.996
234.917
240.305
241.786
219.826
242.433
220.491
220.843
228.171
231.583
218.34
244.717
235.795
226.586
240.853
235.138
213.34
228.993
219.487
219.042
220.527
243.121
221.406
228.546
239.255
218.113
219.494
234.781
231.725
228.966
243.742
233.996
224.356
232.27
220.619
217.809
217.929
219.406
219.404
216.62
229.224
217.676
228.559
241.355
219.064
219.18
221.425
226.017
225.405
217.214
220.471
240.306
228.596
234.81
221.02
218.368
218.727
237.296
224.663
235.832
228.075
241.602
242.374
214.468
218.317
218.48
244.631
222.851
228.009
220.14
235.067
229.669
219.073
227.495
235.715
218.544
231.323
219.371
225.993
215.922
219.26
219.48
232.305
238.935
232.26
235.031
222.172
218.54
235.762
239.275
231.547
229.899
233.079
236.698
217.88
233.523
216.846
232.44
241.431
216.986
223.148
236.879
218.912
225.385
219.982
240.847
218.524
229.94
214.462
234.06
219.764
217.969
220.113
216.768
237.872
217.535
236.933
213.257
218.761
216.282
233.99
224.445
235.678
220.44
210.112
229.321
231.054
222.774
218.555
218.442
231.798
219.782
219.105
219.843
227.66
233.677
230.348
245.605
215.577
231.276
236.096
221.347
214.475
226.485
220.46
246.586
220.063
229.354
233.196
222.368
232.981
219.738
239.034
236.545
224.402
238.045
217.946
245.132
228.025
235.325
235.9
246.779
216.292
233.457
239.895
226.783
229.54
221.824
237.322
233.338
234.629
217.794
238.018
219.809
235.098
236.817
223.087
216.154
228.642
235.021
220.724
239.486
225.128
232.858
228.383
219.971
237.2
242.698
223.538
228.774
215.422
219.862
219.035
228.832
240.526
220.471
241.092
246.255
242.477
223.261
219.036
218.661
218.494
230.504
223.703
227.242
227.59
229.543
233.928
225.058
222.487
234.908
240.69
216.881
225.672
219.975
228.825
218.052
239.894
234.547
225.008
219.135
232.314
232.321
229.974
235.413
217.555
232.686
219.948
219.447
235.082
234.882
242.148
239.987
220.553
228.807
237.19
220.417
221.885
223.064
218.327
240.074
219.149
219.942
237.844
222.24
238.555
240.612
236.798
221.324
231.123
218.287
215.443
218.086
236.885
244.654
218.271
236.073
219.44
219.689
219.94
240.422
226.627
219.796
227.094
236.5
236.238
219.972
218.091
240.77
215.876
233.925
217.48
236.761
234.276
222.468
233.566
242.195
216.686
230.765
228.616
237.956
226.336
241.608
244.119
240.402
213.331
236.261
231.004
219.014
237.073
215.427
220.795
221.855
217.412
221.573
219.672
220.087
238.898
224.376
237.598
218.214
226.971
234.304
238.368
229.588
231.119
220.375
220.426
215.547
225.276
226.519
216.212
237.022
219.449
219.275
228.985
219.121
239.638
236.551
226.473
234.588
234.331
245.4
219.284
222.039
219.348
239.427
228.734
222.882
250.182
234.383
218.232
235.157
224.679
220.216
234.977
222.222
239.525
227.766
234.413
219.086
222.781
220.414
219.91
219.84
226.308
227.358
217.566
220.724
226.525
220.853
224.269
230.414
220.657
222.624
235.211
219.749
220.446
230.996
218.825
237.113
244.815
233.045
233.635
224.569
219.827
219.294
239.907
226.301
229.606
219.802
231.863
220.258
225.748
224.84
219.625
234.165
232.2
229.144
217.437
215.859
218.709
218.413
219.042
240.399
232.29
242.093
239.659
240.556
250.761
228.327
233.256
218.889
241.424
238.844
227.44
223.769
223.783
239.603
224.946
216.698
220.798
232.837
214.923
234.29
232.005
216.871
219.733
219.076
217.304
219.84
219.362
217.279
217.361
241.635
216.638
232.071
239.805
219.913
219.117
233.32
242.043
219.297
224.641
220.823
237.221
223.601
227.288
227.446
230.399
227.89
234.927
231.155
217.485
231.243
231.793
218.954
245.276
218.654
220.237
219.482
237.018
244.009
218.421
240.318
216.324
233.634
239.036
221.043
224.528
219.341
221.257
236.337
219.827
219.624
217.598
230.297
231.772
240.917
218.891
221.095
236.137
226.869
225.453
220.666
235.804
238.876
227.201
221.665
238.875
216.209
226.826
231.582
239.817
238.409
237.911
238.227
224.2
227.186
229.211
220.359
213.408
225.114
218.654
220.94
224.726
216.426
240.862
233.406
234.308
224.006
225.475
240.065
232.721
237.457
229.411
232.717
236.274
242.161
237.92
226.532
236.061
232.687
224.669
219.223
220.322
235.648
218.539
240.746
237.724
220.195
232.023
239.989
222.932
231.427
220.476
226.063
231.818
237.119
236.34
223.794
223.824
227.052
237.091
235.395
223.1
223.571
232.96
224.713
242.068
243.25
225.87
218.491
243.658
222.916
213.573
219.249
224.802
232.707
229.467
223.32
217.722
232.852
220.7
228.606
220.306
218.895
240.086
235.947
246.118
245.444
236.6
251.127
217.808
233.702
231.821
243.427
233.466
220.739
238.453
225.403
218.534
231.783
219.073
227.951
220.356
247.424
235.093
218.607
225.394
221.437
220.319
236.392
221.832
241.933
230.111
234.093
221.52
231.684
246.932
222.444
219.829
219.744
230.741
236.814
240.663
221.243
220.037
224.047
220.278
232.918
230.237
231.577
237.88
220.248
216.174
227.874
219.091
232.355
231.054
223.23
246.712
222.64
213.644
220.328
216.786
237.488
230.842
222.241
219.538
217.086
235.324
218.967
226.95
245.612
224.138
219.916
241.204
220.312
233.538
218.379
219.56
240.054
238.062
213.472
220.025
239.733
235.196
214.07
234.628
238.956
228.822
228.497
222.366
220.738
229.372
220.115
224.904
219.994
228.917
220.851
220.05
218.863
226.971
221.952
223.804
217.414
242.018
237.141
218.745
216.783
221.395
223.15
219.293
227.561
234.921
217.271
224.004
227.282
226.952
219.022
220.127
232.739
234.385
219.029
243.164
218.884
237.051
218.676
235.474
230.824
236.784
218.563
241.493
219.12
225.754
229.924
238.131
238.42
217.721
218.799
225.305
219.657
224.4
234.661
231.564
242.661
237.948
221.038
234.763
214.386
220.839
230.504
235.443
216.444
235.144
247.536
237.744
221.104
219.268
218.116
219.013
246.855
217.819
236.738
218.555
234.109
247.369
226.307
220.764
232.653
218.759
215.68
219.861
228.746
220.072
214.336
220.048
224.446
221.953
235.437
219.862
219.834
220.885
243.591
237.89
219.643
230.991
231.859
223.029
220.961
230.8
219.249
218.307
220.514
220.775
238.586
228.76
236.192
237.644
219.581
234.75
220.301
228.108
235.189
241.229
233.672
220.437
218.037
219.59
239.09
242.694
234.177
233.798
219.579
223.46
226.154
220.315
230.318
219.214
218.58
222.701
231.961
218.656
227.268
224.903
238.723
248.129
218.72
216.589
234.738
239.198
226.638
244.974
240.413
236.772
232.852
241.484
232.419
225.459
241.701
222.742
219.915
235.136
241.202
229.704
244.591
245.382
238.455
228.323
237.773
221.645
221.84
222.221
241.347
234.086
218.716
222.843
218.469
231.401
219.972
234.73
242.123
218.089
232.183
230.266
218.443
216.996
245.216
231.997
242.891
216.457
223.696
226.664
236.351
229.691
244.082
230.299
222.202
233.048
220.311
225.047
234.635
242.708
221.309
246.364
239.385
220.513
235.642
238.964
220.396
219.076
226.315
221.598
238.515
219.516
238.622
219.914
239.509
249.806
234.521
241.602
216.389
225.092
242.574
239.348
223.057
218.02
239.144
218.403
234.286
220.485
228.733
227.421
236.438
213.165
237.769
223.946
238.983
218.656
220.73
219.81
220.209
236.28
220.511
219.172
218.26
231.673
228.632
236.626
225.916
224.626
237.457
220.019
221.634
219.332
238.902
228.944
219.861
234.354
226.308
220.227
226.86
220.592
230.29
219.189
227.635
214.848
228.039
227.185
217.83
218.275
234.903
227.955
229.067
230.56
244.495
230.306
232.573
218.753
235.756
216.964
236.434
230.425
230.299
231.919
231.499
231.18
244.358
232.02
240.086
235.252
237.383
219.965
219.414
216.778
219.193
236.504
220.789
239.112
241.535
224.683
217.614
229.161
236.992
219.117
216.834
218.85
235.8
223.125
235.24
223.245
223.682
219.807
233.223
227.26
238.36
220.522
235.684
238.433
217.675
231.242
233.059
235.517
233.323
218.108
237.763
233.884
226.166
219.869
220.597
227.055
234.97
219.552
232.823
214.28
219.329
238.182
220.778
227.229
232.488
247.961
223.859
220.568
229.778
236.848
237.363
219.053
219.653
229.816
250.179
214.401
215.583
236.301
240.514
224.4
236.808
225.442
230.817
224.003
239.321
230.101
237.642
220.951
227.118
231.464
218.446
219.978
237.646
238.492
220.728
218.95
218.694
219.391
244.927
237.714
219.314
222.676
220.165
226.257
220.788
217.298
220.419
244.093
221.953
234.247
216.963
220.516
241.334
219.524
229.511
217.544
218.132
220.058
236.432
231.747
214.165
226.833
218.476
222.353
217.712
237.654
227.794
218.957
219.408
232.225
239.571
219.628
228.631
235.664
220.129
220.92
234.757
234.489
230.343
244.109
224.327
230.797
219.44
234.418
239.739
245.034
217.545
220.12
243.203
216.109
230.13
223.71
216.233
216.568
213.824
242.298
218.446
233.297
219.142
226.836
237.109
234.352
246.563
249.659
221.883
217.81
227.076
220.691
228.751
232.465
231.295
238.931
218.588
233.882
217.689
229.725
229.891
222.757
224.977
219.379
220.358
238.93
227.582
216.832
220.016
222.69
218.374
227.238
216.319
241.058
219.905
225.067
236.724
228.205
219.204
226.976
237.452
242.533
237.233
217.348
236.502
217.135
235.459
219.446
234.508
222.648
227.299
217.443
219.18
222.533
223.331
228.636
228.883
220.549
215.42
225.706
221.802
231.227
223.292
218.656
218.853
228.56
227.762
238.615
223.598
232.111
232.129
228.623
232.508
235.761
227.661
239.541
230.286
238.407
219.528
236.522
228.689
233.691
225.328
239.067
237.775
220.374
224.983
238.57
232.071
232.45
220.129
236.62
234.948
217.706
236.15
219.988
237.005
239.072
240.942
219.234
216.035
217.105
235.541
218.613
226.477
218.643
221.859
219.429
219.342
247.273
223.86
219.43
219.452
217.257
225.759
240.976
234.957
218.136
217.327
224.381
227.094
231.794
231.43
222.229
219.784
218.167
228.907
217.207
232.654
234.574
228.248
220.498
218.457
241.133
249.101
219.609
219.733
244.459
221.412
238.274
223.837
246.784
237.817
220.119
228.974
244.304
235.168
219.72
235.362
219.309
229.827
237.11
227.757
219.101
220.815
232.889
217.504
237.527
235.859
220.895
242.859
228.818
214.921
219.368
217.019
224.688
221.846
231.077
219.841
233.889
228.164
230.248
220.288
233.604
218.55
227.395
219.487
248.585
226.125
220.265
220.178
219.532
242.49
242.637
218.683
219.994
231.501
233.266
237.989
222.303
221.006
225.28
226.141
237.666
239.36
220.192
219.441
218.6
233.791
223.708
246.441
220.786
243.454
230.852
229.034
227.982
235.08
222.092
243.026
213.699
232.907
231.597
218.059
226.149
230.991
243.562
232.138
244.134
236.363
227.685
218.507
220.807
240.673
241.571
223.613
238.777
214.479
227.285
238.644
218.784
237.044
230.358
235.738
230.132
218.165
227.986
240.389
239.348
220.202
226.425
220.62
219.157
227.837
219.428
235.271
224.504
220.245
243.174
231.284
220.087
237.433
218.467
234.523
235.151
217.234
240.376
233.995
221.107
219.589
223.868
216.848
232.87
235.545
219.371
239.428
217.816
243.689
220.079
220.842
240.932
237.884
220.976
231.979
230.025
219.392
250.092
232.269
217.456
234.8
225.701
219.552
225.414
229.794
216.88
225.009
220.038
229.942
240.591
227.461
248.198
230.179
238.394
225.589
238.9
231.567
213.501
236.285
230.942
228.996
236.061
222.539
222.259
243.951
232.228
234.663
220.799
236.674
239.558
234.54
235.971
231.223
218.692
218.049
220.228
219.354
224.717
231.063
227.139
219.203
219.21
219.226
231.92
231.604
223.806
230.302
218.47
232.46
228.361
228.113
218.972
228.12
229.968
229.484
231.483
231.594
235.331
219.534
216.715
225.316
223.822
219.71
238.574
227.939
219.608
226.595
240.557
238.526
229.528
217.899
226.484
234.159
228.607
247.956
225.248
220.262
217.509
243.333
219.493
214.612
227.687
239.459
239.256
239.427
230.324
227.971
220.425
229.677
230.215
225.623
238.596
235.297
236.709
242.821
228.817
219.151
223.56
228.224
223.295
245.9
233.024
218.385
238.519
238.625
241.911
220.321
218.764
224.874
221.725
217.957
233.979
223.537
237.894
215.163
220.956
224.509
218.315
215.229
234.873
233.65
237.899
232.968
221.856
242.25
218.29
225.979
225.48
244.124
219.888
243.056
231.348
236.237
230.098
233.681
223.17
227.878
227.827
228.305
228.984
219.959
233.845
219.891
220.618
234.932
241.645
232.135
220.279
225.668
218.695
236.638
239.766
232.692
228.663
233.612
221.434
230.333
219.84
220.242
229.389
220.26
227.412
233.557
219.009
224.004
215.606
229.396
220.014
227.455
219.466
226.618
243.244
215.091
213.661
242.512
220.848
220.313
236.561
231.651
248.197
240.486
222.389
237.432
219.539
237.327
225.839
230.639
223.784
221.108
233.855
222.48
241.662
219.987
220.319
244.167
234.875
230.536
219.984
218.108
218.535
218.379
235.031
235.228
228.912
238.354
231.314
220.647
218.84
234.272
233.629
219.511
240.619
228.597
217.883
234.387
220.822
220.284
237.56
230.945
242.641
223.543
236.409
225.705
225.828
231.849
230.68
234.108
239.585
233.499
241.597
219.989
219.73
232.705
236.97
237.664
225.873
239.15
215.248
216.77
230.886
233.577
229.253
223.682
233.734
221.18
220.588
223.876
220.711
234.375
216.899
229.656
230.132
220.012
216.424
219.462
227.968
221.685
219.184
231.253
228.126
240.631
217.878
233.928
239.16
225.658
217.741
220.306
222.677
241.499
231.926
227.081
239.618
228.562
238.518
230.674
231.352
227.9
228.495
233.484
236.351
216.227
218.521
224.688
223.117
220.862
215.658
223.103
224.905
236.693
235.145
233.164
227.527
218.244
245.164
225.778
229.741
220.588
233.933
217.933
229.263
224.714
220.272
228.192
220.23
241.351
216.327
219.362
226.753
237.179
219.53
245.172
218.391
228.593
217.681
229.849
240.911
235.629
237.623
226.31
227.507
230.409
219.216
216.274
232.431
236.517
233.574
229.703
237.181
229.69
234.384
238.216
222.865
238.108
228.129
239.974
227.855
216.273
229.407
237.362
223.096
220.291
224.226
228.255
235.225
226.447
223.581
244.489
242.313
237.989
222.002
229.135
234.836
239.901
212.88
236.958
223.009
237.931
243.833
238.885
232.419
213.743
218.909
233.89
217.986
238.684
235.937
238.545
219.299
229.455
216.969
215.609
239.253
240.278
230.795
237.424
217.505
242.049
225.87
230.711
224.355
226.544
220.556
223.824
226.325
219.416
237.452
219.458
233.921
218.956
218.614
230.99
219.748
239.662
218.51
235.622
251.214
236.687
235.233
249.64
223.484
234.744
219.062
228.629
229.457
228.557
220.44
219.91
228.461
228.077
237.305
240.212
228.835
229.082
218.945
218.384
245.871
216.332
224.504
239.046
220.335
221.007
232.283
223.304
244.096
238.048
233.059
221.006
239.196
228.833
227.177
230.243
232.158
221.313
233.219
221.214
215.479
213.202
228.096
235.292
216.335
220.346
221.584
234.947
222.578
244.63
232.092
234.776
219.999
233.801
231.198
226.727
239.525
224.576
220.561
238.111
218.89
223.607
237.312
228.415
223.516
215.658
220.69
239.605
228.153
231.67
219.47
218.642
237.083
219.741
237.895
223.362
237.859
220.074
225.777
238.66
223.658
246.533
235.531
230.298
218.15
223.178
247.763
237.761
213.569
233.442
223.132
235.115
218.71
234.311
219.427
228.4
237.002
235.552
222.222
217.085
215.295
220.831
236.954
220.688
229.057
239.626
218.09
223.674
225.41
245.109
219.401
220.146
229.715
240.236
234.029
232.917
235.789
218.551
236.265
225.008
226.114
222.445
219.092
243.687
219.994
220.146
234.443
230.762
222.256
232.996
225.871
217.631
224.331
219.864
229.338
217.575
219.615
244.956
234.143
233.194
243.705
224.994
231.247
220.158
219.841
222.359
218.503
222.9
237.217
232.034
239.12
219.751
223.956
222.864
223.158
238.089
221.622
220.456
227.881
217.957
226.245
241.057
223.421
219.566
235.564
218.164
235.854
236.141
220.58
217.947
236.499
224.468
235.157
221.815
235.17
241.027
227.54
236.163
225.523
229.798
234.867
219.117
240.41
231.452
214.061
239.407
243.741
235.312
236.729
220.634
234.296
219.894
221.628
219.57
226.172
243.242
221.138
219.796
241.118
238.457
226.271
242.007
218.661
238.396
220.634
227.22
227.387
240.228
241.434
229.819
214.321
230.95
235.482
216.079
225.02
220.454
233.045
225.114
228.808
233.889
231.616
228.126
245.029
230.103
216.899
218.386
224.223
239.065
220.995
227.46
231.342
240.583
236.498
219.339
232.661
220.793
220.129
228.95
242.216
229.914
231.559
234.947
229.314
224.256
217.13
235.181
243.622
224.909
236.546
218.917
219.956
225.745
234.564
214.09
231.658
218.5
242.639
235.953
219.296
233.906
240.384
222.786
219.428
218.024
219.576
221.668
228.606
242.228
228.124
220.559
232.064
236.077
230.227
237.689
226.987
220.172
243.101
214.62
227.622
234.408
219.18
239.207
234.345
214.064
222.248
243.951
228.894
219.606
219.492
225.136
232.099
229.573
235.262
234.578
219.522
221.292
235.168
232.385
219.201
225.093
217.15
219.394
219.135
215.1
241.608
233.211
225.027
243.456
225.189
233.376
239.212
219.188
237.129
222.865
233.412
226.913
245.143
239.799
217.133
225.873
234.517
222.011
236.387
218.563
234.217
229.984
218.29
228.011
223.321
231.273
219.996
236.784
238.056
233.072
218.392
232.436
234.843
243.945
218.9
223.523
228.044
248.029
220.788
232.959
238.649
221.714
218.993
220.461
221.677
236.235
242.199
217.943
234.591
221.698
235.566
236.148
238.518
213.294
226.871
220.512
230.409
240.628
227.812
223.337
237.085
230.757
230.085
230.184
232.144
219.473
220.265
218.267
218.756
232.285
234.718
218.873
223.735
236.917
231.387
220.641
234.104
220.213
238.721
220.433
225.072
245.86
238.336
219.891
238.49
236.545
221.564
239.143
244.287
218.069
220.305
219.726
231.821
217.803
236.997
244.063
219.1
237.445
237.384
219.447
222.339
222.971
243.123
229.847
230.912
229.424
221.654
218.581
233.428
221.275
236.809
236.55
228.73
218.673
235.863
221.493
235.445
232.958
220.274
238.486
219.309
220.754
228.951
232.592
218.788
232.227
224.561
219.785
240.112
224.735
223.759
242.991
219.796
232.984
221.404
218.189
225.432
222.478
216.816
219.482
237.462
216.133
223.288
220.034
221.429
233.687
236.157
220.662
219.064
217.235
222.241
233.863
230.31
221.595
230.074
219.722
219.751
219.726
232.418
219.949
236.441
225.925
236.517
213.108
221.435
236.269
213.367
219.693
236.127
220.227
217.358
232.443
237.098
234.241
225.767
240.559
219.632
234.55
220.285
218.002
228.906
218.232
220.095
220.8
226.128
230.262
218.398
222.114
224.677
233.549
219.494
235.19
220.539
226.377
218.521
226.683
232.192
235.378
216.644
230.335
229.921
241.409
233.93
221.977
229.631
230.41
218.483
226.494
246.584
234.716
221.686
220.07
224.619
222.985
221.592
234.175
241.467
233.653
233.435
223.911
242.53
219.171
221.733
237.797
230.856
230.096
218.822
235.259