# vtk DataFile Version 3.0
vtk output
ASCII
DATASET POLYDATA
POINTS 10000 float
-14.4505 -26.457 3.1507
2.02089 -44.322 12.6445
3.20015 -46.4524 11.0722
-0.796176 -44.5157 14.9014
-1.80043 -44.0791 11.7884
-0.0328485 -45.3907 14.0287
-12.8656 -29.9153 8.02799
-5.25371 -43.487 10.9071
3.44474 -46.8129 11.7876
-12.5378 -29.5525 8.23125
-10.7213 -38.5354 7.66998
-15.4903 -28.3111 7.61091
-2.92164 -41.7029 14.1163
0.917195 -45.7814 11.9738
7.07516 -48.506 13.4713
-0.115556 -45.6336 11.1851
-14.1914 -27.7416 6.0091
-1.15714 -44.3087 14.2145
3.33343 -47.2993 10.7901
-0.873113 -42.8381 12.6209
4.00964 -49.2579 6.43029
0.899872 -45.9371 14.41
-1.14174 -43.8639 12.7298
-15.7213 -28.2311 5.23749
-10.6508 -31.6831 9.55322
22.4089 -52.995 9.13187
16.9389 -55.1432 9.58684
1.10507 -46.354 14.8196
-12.7565 -34.6059 7.7269
0.0499987 -43.8405 12.3431
12.0256 -51.6293 6.69398
2.71981 -45.8781 11.5245
29.1697 -53.4753 9.78444
-13.2384 -30.3165 7.18473
-5.40232 -44.8348 9.59269
0.572529 -45.3634 13.3385
-11.835 -35.7378 9.73861
2.16483 -42.3613 13.1997
3.22267 -44.7486 12.2145
-3.93041 -40.8229 12.8716
-14.8084 -26.5013 5.53738
5.06105 -49.8888 7.08302
-2.5332 -41.0387 12.7242
-1.47229 -43.1393 11.9163
-5.22813 -43.6556 11.3335
-13.4026 -32.8067 9.16314
-8.63738 -41.005 10.1921
-8.58155 -41.4088 10.1052
-0.650531 -45.2016 11.4805
-15.3643 -26.1917 4.99633
0.147706 -43.7549 12.5263
-0.224546 -48.0515 9.05414
-12.8999 -32.0562 8.7799
-15.1249 -26.2178 0.815878
3.48088 -46.2122 12.0087
-14.1147 -27.8582 6.94415
-2.8019 -42.1648 14.2065
-13.6415 -23.2824 4.61693
1.96352 -48.7179 9.35513
-1.81417 -43.4933 11.5654
-15.7834 -27.6635 6.63505
1.81904 -49.1767 9.34799
-15.1586 -29.1871 6.45384
-10.0898 -39.1564 10.008
-13.9255 -32.256 8.30357
-13.4963 -24.7295 0.569103
5.79433 -48.2429 15.7348
-12.9182 -33.3787 9.32133
-2.3608 -44.2994 17.6402
2.49021 -47.472 14.6825
-4.32605 -40.248 13.128
1.25622 -48.6497 8.31281
-0.180669 -40.2964 13.4827
-15.2903 -26.7162 6.16817
4.23234 -47.9684 15.0786
-14.6373 -24.084 3.89651
-2.83588 -46.1054 10.1203
-13.8947 -31.5119 5.3178
-1.78081 -44.3117 11.7867
9.51626 -50.2472 6.57139
6.69148 -50.0106 8.20497
-13.4676 -32.8268 5.21741
-12.4436 -34.7391 9.39953
1.02922 -41.6094 12.8745
-2.06477 -46.4828 10.2996
-4.00178 -40.9112 13.6826
-11.8755 -36.5652 9.3498
-13.0546 -32.0778 8.62236
-14.899 -28.647 6.64739
-2.23286 -43.7408 13.611
-14.7383 -28.2118 6.43617
-11.0876 -33.6876 8.31379
2.92843 -44.9984 11.9682
-6.65128 -42.791 19.1909
-14.7348 -28.3217 7.27624
-12.3747 -29.0257 7.28635
-15.5699 -26.8095 4.25239
-14.5952 -24.7244 4.80826
-7.15777 -42.6107 10.4429
-18.1726 -21.1001 2.6785
17.5086 -51.5255 8.96069
22.7265 -52.2187 9.78836
-14.3004 -24.6062 0.563353
6.94584 -48.7299 11.1978
-14.5098 -25.4884 5.15422
-13.9156 -28.5624 7.42179
2.06764 -46.8 12.8481
-3.30164 -46.3098 9.62432
4.75907 -46.5245 11.829
-1.87123 -43.9531 13.2144
-13.8697 -31.8702 8.45129
10.6388 -47.7562 11.6453
-0.619424 -43.771 12.1614
-1.01779 -41.4843 12.7626
-13.4261 -30.5942 8.42322
-12.1835 -35.8626 9.16113
-14.4804 -23.4527 3.8434
-13.7374 -28.0016 7.32262
-13.9751 -26.4893 6.09879
-13.3827 -30.3278 8.29019
-3.47998 -41.6022 13.3452
4.91307 -48.2354 15.7951
-6.65411 -42.5901 10.9274
3.34129 -44.9646 12.2924
-12.7797 -34.3882 7.30505
16.286 -52.256 8.72325
-8.27307 -42.1674 8.78681
3.1323 -47.9074 13.8567
-14.4723 -28.94 7.21497
-14.4381 -30.4613 7.38747
-11.9472 -33.1691 9.04663
6.48021 -49.5883 6.41795
-14.0065 -29.4037 7.2434
1.08486 -45.5631 11.704
-5.37059 -43.5432 10.3297
3.6535 -49.2516 8.11234
-13.3106 -27.8936 7.35677
-2.93752 -43.4216 11.8399
18.5514 -49.982 10.777
-12.1388 -26.5886 7.52004
-8.02822 -40.7021 10.7879
-16.7364 -25.2094 3.67402
-0.323911 -43.4123 12.9176
4.93264 -47.7015 16.7667
-12.7236 -33.8696 9.45111
-2.85363 -42.4259 14.3266
-14.7207 -29.2211 7.10956
-15.5064 -24.8661 4.72164
-16.2593 -25.0603 3.68514
-15.991 -27.4385 5.53443
0.415415 -44.5672 12.6774
6.47927 -50.8221 7.44862
-12.3645 -35.3382 5.20327
-1.28156 -44.0172 15.103
-0.547433 -45.8965 10.8284
-12.1137 -34.3001 9.06857
-15.027 -23.1955 3.45501
-6.20953 -44.276 10.2227
-13.6261 -31.8411 8.45396
-3.94462 -43.2017 11.2056
-13.1423 -27.8447 7.71818
0.442235 -44.3167 11.9167
6.81479 -52.9853 8.24413
-1.15279 -45.4371 11.7446
-2.16393 -43.4561 13.248
3.52365 -48.1255 14.8784
-14.2688 -28.1359 6.37971
-14.0023 -23.5552 3.96306
-8.01405 -41.9528 10.8592
18.6459 -52.6763 8.35857
-12.19 -32.3305 7.88009
-13.8126 -28.9775 7.76529
2.55158 -47.3078 15.2017
3.85448 -47.3239 16.6519
-12.5083 -35.3933 9.34814
1.20103 -41.8537 12.8312
-14.7985 -23.142 3.66541
-12.9935 -32.6371 8.501
-13.3139 -32.1194 8.62347
-14.1562 -27.6206 6.13911
-13.6674 -32.2913 8.59475
-13.053 -29.2073 7.11757
-14.499 -27.5641 7.20404
2.6871 -49.2166 8.19204
-13.0698 -33.8151 8.87678
-2.69585 -43.9149 11.8693
-12.767 -29.5644 7.95999
5.57997 -45.97 12.0303
-3.26536 -40.83 12.7897
-13.4727 -30.7092 8.19114
-12.6293 -32.8322 8.66327
-1.81995 -44.7658 10.9165
-13.571 -32.7225 8.60992
11.6651 -51.0564 12.5468
3.04748 -47.6021 15.6124
-9.67748 -39.7708 10.3319
-5.05942 -44.6377 5.82424
-3.83085 -42.0977 13.1927
-1.75956 -44.2593 12.6614
-13.4898 -30.4555 7.86274
-14.9147 -27.0275 5.89828
-0.850092 -41.947 12.5703
-14.5417 -24.2842 4.96046
9.65321 -53.2398 8.35625
9.96292 -48.1411 12.141
2.05405 -46.503 11.0143
-12.4178 -27.027 0.579338
10.5283 -50.4399 10.8218
-14.7112 -29.6579 8.0917
6.44904 -48.9815 16.1996
-1.69642 -47.1255 7.1158
7.29042 -51.8779 8.0064
-12.2589 -28.9388 7.4133
-14.2594 -31.8969 7.75833
-12.9785 -33.2447 6.67792
11.8155 -54.6517 9.85348
-14.4882 -26.939 7.06953
-12.8345 -30.1305 7.87715
-5.04223 -43.5928 11.4369
7.47933 -50.4083 6.9107
3.48794 -46.8383 11.5927
4.04303 -47.4947 10.6898
-3.30436 -46.1886 7.64681
-9.6169 -39.7656 10.3055
-8.01378 -41.6284 10.3287
-0.437529 -48.2584 8.6403
13.6545 -52.2376 7.79634
-14.5673 -29.4864 6.0911
-15.0669 -28.3286 7.02637
-3.48234 -45.5097 11.0743
-2.62004 -40.7757 12.8668
-8.70633 -40.9638 9.78909
-13.8586 -30.5202 7.79506
-12.3114 -26.8928 7.13257
-13.483 -27.0107 6.92874
-13.1577 -24.6983 4.60151
-14.0791 -31.9977 8.38914
8.03886 -45.5812 12.1996
-12.2623 -27.2283 7.54761
-13.5917 -27.6092 6.55006
-1.37066 -45.8202 11.5086
-3.72484 -43.855 11.6517
-0.411733 -48.1836 8.81141
-1.94947 -44.6189 12.66
-12.8383 -33.2044 8.47384
-19.4776 -29.6551 0.362948
-13.1601 -27.3432 7.06072
-13.5283 -33.1278 8.82258
-15.6571 -26.1381 3.99322
-12.7993 -30.2842 8.00058
-4.54012 -44.5481 10.8623
-12.5121 -34.6137 5.68768
-11.4653 -37.3325 9.95052
-1.16461 -42.1135 12.8718
-15.61 -27.6864 5.61616
8.00646 -51.9131 7.50713
-13.066 -29.5336 8.31349
1.711 -46.7436 13.5849
7.25408 -49.1865 16.0145
-15.3687 -24.6664 4.59469
-13.5056 -30.4441 7.66156
-13.1934 -33.164 9.00289
10.9616 -51.1886 7.22424
-1.98063 -43.2653 13.1116
-2.41695 -41.182 12.471
-7.99984 -41.3734 10.532
16.1117 -52.8287 8.21655
0.560039 -42.288 12.9463
8.88492 -51.935 7.26779
-14.3664 -28.8002 7.51884
-16.0091 -26.3291 4.31545
1.13949 -45.9477 14.0692
-12.2926 -27.9977 7.4159
0.221867 -46.5276 13.1645
-1.88292 -42.4392 12.8333
-13.7284 -29.9315 8.02575
0.0629962 -48.3729 8.48777
-1.79967 -42.7211 11.9198
-14.0026 -31.0659 4.95688
-14.6032 -26.3485 6.35625
-14.0525 -29.6055 8.06093
-13.8904 -31.3473 8.11786
-15.4396 -27.3755 5.53715
-3.06627 -43.7121 17.9953
-13.6759 -31.1772 8.61891
-7.53354 -42.5888 10.2927
-3.20223 -42.0728 13.911
3.15686 -47.1657 10.7084
-15.3062 -26.3746 4.83776
-11.9589 -36.6019 9.38062
-11.6108 -34.4126 8.67652
-13.2013 -28.9718 7.56174
0.239616 -44.6663 12.3641
2.75368 -47.2458 13.2828
-13.4823 -29.7003 8.40735
-16.0891 -27.2242 5.97583
23.0168 -52.9637 10.2384
17.4161 -52.7349 8.75553
-14.2088 -29.3414 8.00519
0.444977 -46.5866 10.9784
-1.45884 -47.0117 5.87393
-0.640297 -42.7991 12.5075
-2.11712 -44.8445 11.1781
2.46926 -46.9905 15.2825
-1.32529 -44.3518 12.5711
-1.18469 -43.242 13.6619
-2.99057 -43.7522 11.9474
-14.6479 -28.6684 7.7095
8.21234 -46.717 12.1797
13.8223 -51.9509 7.66531
5.66137 -52.2458 7.86287
-3.24954 -39.9631 13.7537
-3.17244 -41.889 13.2339
2.58764 -46.3381 11.3213
-14.8155 -29.3148 7.9126
-13.1885 -32.2708 8.05502
-2.404 -41.3389 12.9259
-2.66709 -43.4078 12.6986
-13.7132 -24.4596 1.55406
-13.4328 -31.7176 8.41464
-13.9887 -27.6573 5.72331
-2.77106 -41.3942 12.6311
5.58639 -46.3227 12.1813
-2.3663 -43.3949 14.0576
-13.1603 -29.391 7.72252
-14.6932 -27.9215 7.03947
-11.1312 -36.7904 5.7917
-12.7352 -33.1335 9.06669
-8.89338 -40.0043 6.09825
-2.54423 -49.3018 6.39726
1.18343 -46.026 17.5204
-2.94543 -43.4778 14.2865
2.99085 -46.6024 12.1418
-13.316 -27.3991 5.87188
-9.25014 -39.7734 10.8941
29.1755 -53.0979 10.9488
-3.86113 -39.6771 13.3178
-14.0768 -28.8137 7.76186
-14.7288 -25.113 5.61876
-2.24197 -44.6899 11.5019
-14.844 -28.2782 7.23653
-15.5063 -28.1166 6.78414
0.063205 -43.068 12.8004
-12.3307 -35.9825 8.51683
-0.379098 -44.8963 13.4672
-14.6864 -29.5785 7.32129
2.75509 -47.1595 16.2456
3.44544 -46.927 14.8691
-1.44103 -40.5269 12.7899
-13.3168 -29.6859 7.68792
-13.9675 -26.0387 6.57995
-12.5471 -35.1109 9.22913
-15.9611 -26.3518 4.69166
-11.9972 -33.7011 8.30625
-0.227573 -45.1926 11.9518
-12.5364 -26.7095 6.9566
-13.992 -26.2277 4.23841
-14.124 -27.8322 6.33136
-14.1877 -31.0867 8.42508
-14.6491 -25.665 4.26683
-12.8848 -32.9602 8.94123
4.39642 -37.2584 26.6966
-14.117 -28.5163 7.56211
8.22316 -49.7357 15.451
-15.177 -24.2604 4.22251
-14.7741 -26.2906 3.91903
2.44786 -46.6864 16.0368
0.789845 -45.1927 11.8456
14.2446 -54.1671 9.84579
0.919075 -46.4101 14.2406
-14.7502 -28.0306 7.56443
1.60852 -43.199 12.914
-14.2632 -27.6966 6.07219
-2.70335 -43.4357 12.6333
-11.6427 -36.3574 6.28473
3.21958 -47.3636 17.1482
-13.9077 -31.4046 7.98412
2.88678 -47.8818 12.95
0.443129 -45.64 15.1981
0.564308 -44.492 12.3547
3.58891 -45.3355 11.7654
-13.743 -30.6439 6.9411
2.24003 -46.7832 15.453
-14.7947 -24.8795 5.1122
-5.03612 -42.8868 18.5928
-1.56589 -44.5872 14.2048
2.77896 -48.2427 11.9156
-14.8721 -27.3226 6.82933
-4.50462 -44.0409 11.1066
[...]
POINT_DATA 10000
SCALARS t float 1
LOOKUP_TABLE default
267.839
210.622
210.48
213.732
211.04
213.46
229.124
212.005
210.558
227.929
231.087
231.8
213.874
210.735
212.688
210.876
244.648
213.493
211.041
210.882
236.958
213.486
211.643
251.968
219.904
220.917
214.665
213.375
231.249
210.376
234.406
209.839
219.118
235.153
216.889
212.74
219.081
211.174
209.543
212.492
248.904
231.69
211.427
210.208
212.334
222.49
215.661
215.967
210.933
253.956
210.631
219.156
224.715
283.078
210.236
236.948
213.862
259.114
217.252
210.42
239.807
217.184
241.088
216.694
226.907
285.605
211.201
221.778
212.179
212.992
213.117
224.114
212.711
243.751
212.159
263.981
213.338
250.474
211.199
236.43
224.559
251.107
221.02
210.602
212.65
213.874
220.6
225.567
239.374
213.112
241.143
227.676
209.259
211.984
234.409
234.586
260.422
255.653
214.382
275.963
221.102
219.942
285.327
212.405
252.289
233.276
212.739
216.036
209.805
212.672
226.07
209.159
210.426
210.934
226.604
221.72
264.759
234.213
244.129
227.438
213.121
211.239
212.882
209.838
234.39
220.546
222.61
213.219
234.736
233.305
222.9
237.443
234.503
210.129
213.477
225.426
234.112
211.436
213.971
234.853
213.349
266.33
211.474
210.511
221.185
213.94
235.533
256.663
265.9
249.559
211.182
228.021
250.414
213.68
210.913
222.757
267.85
214.62
226.282
211.106
231.821
209.731
220.477
211.428
212.686
212.491
241.491
263.747
214.023
222.747
230.592
230.817
212.476
210.762
220.936
210.432
266.371
226.281
225.502
243.522
225.423
235.568
235.262
224.597
223.84
211.615
229.617
209.229
211.942
228.059
225.411
210.796
225.349
214.282
211.842
215.856
243.398
213.185
212.137
230.182
245.8
210.474
255.05
220.588
210.645
210.683
284.912
214.739
228.272
210.715
233.273
223.131
233.721
230.42
239.413
213.026
236.603
230.121
212.254
232.89
210.544
211.483
229.446
215.852
215.013
221.743
225.731
244.041
236.344
211.805
211.751
217.241
230.493
237.024
237.587
257.921
226.245
207.994
233.87
240.121
211.551
211.836
220.666
212.527
226.49
284.398
236.585
224.119
262.692
229.32
211.849
246.984
217.601
211.337
248.594
226.921
227.424
213.445
210.847
257.775
231.556
223.291
230.757
212.414
210.88
214.372
222.708
210.973
229.11
232.508
260.255
213.453
234.101
213.308
211.694
229.03
222.834
210.155
253.441
242.187
228.791
228.285
249.206
212.191
225.431
215.076
213.687
211.247
255.334
220.457
225.136
232.301
210.836
213.257
226.827
245.723
218.182
220.222
229.17
210.891
242.371
210.516
211.115
212.43
211.801
213.006
211.82
231.128
209.073
226.839
223.182
213.947
212.847
210.378
229.503
229.109
211.844
212.437
279.137
226.656
247.178
211.479
209.845
213.493
231.103
236.275
245.996
223.102
242.419
234.295
211.222
213.79
211.054
245.943
214.233
215.415
213.321
230.86
249.032
211.398
234.726
238.413
210.952
225.484
212.89
233.826
211.322
212.713
211.038
231.324
241.088
221.589
257.074
227.723
210.945
238.326
260.63
241.88
226.113
260.377
223.79
212.281
232.289
211.296
261.167
263.107
211.605
210.134
213.869
213.496
232.489
210.841
244.101
212.391
242.093
210.524
229.169
213.502
213.162
210.568
208.87
237.019
212.306
253.074
212.126
213.543
213.029
238.16
211.806
221.777
213.17
212.173
219.675
236.223
211.4
209.124
213.482
243.643
211.34
211.097
211.362
216.166
231.863
224.823
251.491
210.727
231.767
269.834
223.296
211.656
216.945
211.397
235.707
211.332
211.697
230.518
224.312
218.193
210.874
226.246
244.042
216.462
232.453
213.554
239.976
224.81
239.303
233.457
239.373
213.161
234.25
253.128
225.32
219.073
216.725
246.096
242.492
221.618
211.463
236.278
213.369
218.879
249.583
230.021
213.047
214.637
243.069
210.156
242.567
211.91
234.297
226.025
210.522
241.074
223.971
212.535
220.152
211.095
213.669
213.478
255.175
233.49
213.348
264.428
253.885
247.262
219.935
209.715
212.72
213.485
224.535
209.881
218.211
228.744
222.586
243.134
232.062
219.082
234.466
240.415
211.45
216.395
211.938
230.468
209.571
261.908
234.256
216.656
213.364
235.44
253.876
236.178
232.212
211.771
243.157
212.373
210.516
243.103
249.553
222.627
251.933
210.485
219.88
247.244
211.262
213.578
221.909
209.421
234.265
213.539
212.42
252.06
214.277
253.128
260.165
257.138
233.032
219.846
214.041
210.993
211.575
221.697
254.14
213.379
240.838
212.219
212.551
210.154
237.832
210.897
213.017
225.75
222.352
269.978
211.897
211.556
236.641
215.301
234.387
221.822
238.849
246.419
211.219
237.365
242.953
210.335
232.605
232.717
231.842
226.808
242.536
246.018
235.409
212.219
240.358
222.527
213.854
241.109
211.672
210.914
210.568
210.9
221.384
210.394
211.753
237.77
225.42
278.333
213.878
211.009
231.114
257.402
238.025
231.64
211.705
211.237
211.686
215.811
224.463
212.226
250.676
211.324
214.269
236.43
210.208
222.557
219.107
220.621
223.565
217.805
245.086
213.065
211.953
212.491
231.146
219.201
216.751
248.209
240.733
212.573
225.959
211.011
214.783
229.039
226.204
234.685
252.524
258.704
211.379
211.225
210.695
212.339
211.342
284.069
227.409
211.065
211.95
245.319
211.738
223.772
239.301
212.89
214.744
234.44
210.947
212.496
217.369
210.803
239.449
227.435
240.062
228.17
216.601
209.996
213.184
242
230.363
255.669
213.932
226.886
212.567
230.466
230.707
212.839
238.528
226.49
250.153
211.143
210.85
213.615
210.924
210.725
273.897
226.853
235.564
245.068
245.337
232.706
231.419
247.71
213.257
219.2
232.133
218.239
213.013
239.62
245.657
216.734
211.161
209.714
234.814
210.707
218.949
227.264
211.202
211.076
213.651
210.714
210.394
212.836
210.81
212.598
267.097
210.616
226.243
223.795
210.753
213.433
249.699
231.065
208.786
211.582
210.605
230.958
210.359
227.341
217.112
228.018
246.426
225.988
242.504
211.741
273.188
211.208
210.424
248.272
210.97
212.526
210.362
230.214
238.178
210.204
260.262
210.61
247.992
229.782
209.379
220.455
213.46
214.805
242.744
211.697
211.96
210.659
218.29
230.872
247.975
211.852
210.618
242.001
232.262
217.688
211.662
246.283
262.658
228.396
210.921
244.719
211.267
224.409
251.344
251.571
253.745
242.506
240.44
211.642
215.222
225.826
212.043
212.32
217.385
214.008
210.959
237.369
210.132
250.277
233.015
220.896
220.697
222.781
261.977
241.909
232.101
227.36
226.865
236.898
244.712
235.365
216.549
214.277
231.096
212.048
210.389
215.237
236.032
211.33
229.972
233.611
228.139
225.743
239.829
226.43
230.384
210.415
225.397
238.884
234.741
236.501
212.586
216.863
216.32
254.555
230.305
228.307
239.613
245.33
212.643
238.183
279.891
246.043
210.826
258.047
211.604
212.327
213.384
212.835
228.787
226.538
225.96
216.384
239.976
212.552
242.966
210.134
213.154
247.665
240.607
245.266
228.018
272.103
249.825
210.622
254.754
238.231
242.749
284.532
210.526
242.63
224.781
211.484
252.123
209.499
215.375
211.589
255.209
231.916
214.517
237.552
210.606
211.435
226.781
212.705
234.773
244.997
232.2
217.139
241.762
240.425
217.817
211.645
211.105
239.855
223.68
237.632
210.388
209.526
217.378
213.559
230.723
216.228
253.228
228.003
210.91
209.8
219.661
212.743
223.676
225.258
213.996
239.427
216.921
212.068
211.24
211.365
232.691
243.833
210.881
212.976
211.268
218.413
213.424
248.428
234.443
216.149
212.263
218.935
212.618
231.987
211.142
213.365
239.448
236.863
212.422
211.924
226.135
242.933
209.724
240.878
221.764
232.159
229.116
212.633
210.893
217.194
216.024
228.897
212.715
231.566
212.58
210.795
211.16
233.235
209.712
216.738
212.166
242.871
240.197
211.624
211.431
213.22
213.621
211.439
236.571
237.195
211.128
221.307
228.722
228.391
213.458
212.802
223.132
230.745
213.34
219.876
211.786
265.309
213.575
235.167
240.805
232.068
214.011
237.035
212.77
216.7
219.05
231.934
219.005
210.977
227.966
217.203
211.01
212.281
235.646
221.009
245.303
241.949
211.914
254.089
211.361
210.758
245.837
230.144
210.663
227.792
246.602
246.304
211.317
210.887
211.903
209.901
284.261
209.963
246.788
209.933
227.482
237.412
213.093
211.409
217.917
213.58
211.223
212.193
240.371
212.331
211.336
210.981
227.677
231.445
267.605
211.971
213.052
212.398
217.721
247.025
209.336
214.901
233.465
211.625
210.826
217.757
212.715
213.806
221.696
212.346
227.499
216.439
237.506
259.192
213.225
222.213
209.954
231.1
280.11
265.435
246.787
212.844
210.205
210.094
236.917
249.197
219.465
236.159
212.988
223.61
243.912
210.409
218.554
211.964
213.636
232.604
261.486
209.715
228.734
226.889
238.567
235.908
213.608
209.742
249.073
291.449
223.545
241.856
235.886
224.295
244.893
243.578
229.508
215.097
236.908
210.172
212.576
237.863
228.121
240.232
221.461
242.728
235.266
235.945
262.324
226.084
224.733
225.987
247.088
220.677
209.634
224.266
211.32
274.977
211.172
231.101
257.455
222.631
245.175
236.968
212.88
211.552
239.235
288.955
246.527
209.385
213.709
222.586
267.883
224.899
253.612
233.702
212.331
223.508
210.273
217.279
247.201
245.068
232.016
240.71
237.835
212.954
252.302
230.898
212.629
211.474
235.362
218.899
262.676
213.533
241.752
211.159
262.276
225.789
242.805
246.202
213.839
210.883
283.535
229.474
216.223
210.297
251.837
211.791
247.633
211.804
216.952
230.544
241.2
210.841
244.465
214.075
218.412
210.128
211.008
213.083
210.906
226.432
211.52
213.126
211.055
218.636
251.104
233.237
221.782
214.027
239.749
211.135
213.915
210.38
231.725
227.415
213.402
236.022
221.223
212.119
227.676
212.882
236.465
212.841
216.867
210.42
242.774
214.981
211.922
209.813
244.724
273.879
232.331
251.275
255.961
231.059
265.079
213.51
231.216
212.413
215.223
227.987
265.448
218.367
255.638
266.146
275.333
229.484
222.336
264.564
239.392
212.935
209.555
211.098
211.824
229.487
211.061
248.183
246.242
217.577
212.805
234.408
251.454
211.832
212.096
209.145
247.542
210.545
241.273
212.381
228.238
210.009
231.732
232.217
262.974
213.062
237.414
251.491
211.016
225.246
235.794
238.897
225.284
214.003
229.531
218.163
229.607
213.452
209.815
231.623
215.82
213.08
250.477
214.712
213.273
238.271
212.596
240.286
249.144
245.19
218.275
211.871
235.323
241.838
226.417
213.721
210.589
216.785
241.892
211.614
210.7
225.963
242.071
219.617
238.565
215.682
227.216
214.696
239.223
224.497
232.854
214.205
211.162
252.237
212.001
212.583
234.412
240.661
212.093
213.55
214.355
211.865
266.567
242.228
219.22
229.379
213.004
227.681
211.468
209.519
209.903
249.554
219.528
240.481
211.195
212.524
252.815
213.169
221.078
211.821
213.549
217.166
236.6
244.547
214.225
213.668
211.101
213.786
211.482
267.198
255.844
213.555
211.38
241.254
223.788
211.319
225.374
246.953
213.173
210.973
230.539
229.805
230.832
222.439
224.702
225.987
211.406
244.337
231.354
242.186
210.738
211.94
259.114
210.92
227.353
211.663
210.133
209.163
211.984
222.739
216.939
222.98
213.175
229.109
230.5
264.084
228.472
237.763
216
209.279
218.54
211.67
223.481
225.884
230.74
220.289
210.253
242.591
211.027
227.294
242.971
221.478
224.849
212.031
210.819
219.363
228.032
210.807
213.013
244.41
213.557
225.219
212.177
234.042
213.416
215.096
215.393
216.14
210.315
217.367
224.771
243.039
229.128
211.159
261.541
210.129
226.611
212.865
243.386
222.549
224.386
211.881
213.791
226.73
210.196
248.215
227.114
212.199
210.501
224.828
225.569
217.759
239.551
211.821
213.462
219.503
248.423
284.474
215.088
234.027
223.42
235.599
228.383
235.944
237.856
247.831
247.112
230.775
222.469
236.607
222.551
241.582
231.607
286.592
235.641
210.728
227.103
245.462
250.472
228.331
210.994
242.021
236.402
208.435
244.5
213.857
237.368
242.011
262.019
213.562
211.465
211.663
233.02
212.876
217.674
210.218
215.586
213.346
213.676
232.859
217.226
210.237
211.772
216.523
217.933
240.852
239.394
211.909
213.335
220.615
222.139
229.866
220.38
214.881
210.451
215.975
240.258
212.571
223.971
242.293
211.122
212.444
209.271
259.187
245.827
212.886
213.166
240.395
210.433
269.274
210.662
248.396
235.105
211
240.562
256.891
241.275
229.961
216.269
213.506
239.214
249.476
226.789
213.427
211.662
290.146
210.474
230.892
234.021
213.386
247.662
250.637
210.898
210.698
211.361
212.612
210.516
227.893
211.499
236.166
213.758
229.203
210.989
236.459
212.283
219.089
210.781
262.107
224.767
212.196
215.375
211.584
245.144
263.884
210.561
210.848
219.45
264.17
248.547
210.563
211.854
221.714
218.649
237.547
262.785
212.143
212.741
212.884
251.935
226.876
234.1
213.174
248.799
214.721
237.522
229.449
246.498
216.203
243.792
212.078
260.598
236.173
209.336
228.851
233.329
251.661
233.923
266.891
236.739
217.126
214.283
210.696
255.179
217.654
217.888
232.703
211.608
233.241
275.327
211.674
236.704
230.814
234.767
232.921
211.303
226.915
242.351
239.785
213.759
217.159
215.623
212.179
218.461
213.394
244.606
229.232
210.383
243.645
238.879
210.816
235.803
213.486
216.853
217.937
212.838
241.346
240.915
211.692
213.463
232.247
210.529
237.304
230.637
211.591
257.435
211.449
236.177
212.603
211.799
219.497
273.807
211.984
241.045
233.266
211.4
235.141
237.803
212.76
243.669
224.241
212.146
232.412
226.904
212.23
215.954
212.636
235.927
237.953
218.785
250.947
237.536
236.102
235.232
219.349
228.732
212.638
233.821
217.039
246.894
232.376
219.65
225.759
253.986
227.227
248.574
211.905
227.642
240.921
227.403
227.845
230.016
213.416
210.289
211.719
210.42
215.882
235.182
229.862
212.963
213.309
213.184
270.351
227.105
210.476
225.394
209.279
229.28
237.748
236.123
215.344
225.982
235.088
217.867
233.011
235.458
220.945
211.509
211.843
231.197
224.227
211.851
251.306
231.452
211.628
227.389
275.344
221.395
247.859
214.026
225.888
271.108
291.564
250.481
239.602
211.63
210.763
218.014
211.361
211.193
217.657
217.911
222.274
235.108
230.522
228.54
210.474
225.536
219.22
225.292
257.398
281.554
239.705
238.464
244.239
212.829
224.811
228.227
214.342
286.115
238.29
218.897
231.492
260.129
250.308
212.417
213.434
210.964
226.934
210.518
230.585
220.018
216.819
210.584
212.132
216.685
211.209
211.582
280.464
233.345
244.231
283.587
220.599
265.628
210.497
230.761
226.493
237.94
213.508
272.61
238.717
232.632
235.199
224.809
211.973
232.428
225.272
215.836
217.786
214.061
217.896
224.524
210.713
269.137
274.665
228.777
212.779
216.89
214.166
257.893
238.638
217.819
228.616
265.788
216.059
267.173
209.265
212.108
231.714
213.689
237.286
235.946
210.565
231.013
211.527
258.764
212.699
243.351
211.771
227.051
268.545
209.563
212.215
218.31
212.002
211.4
230.332
232.957
257.37
251.162
216.301
238.117
210.869
266.636
220.292
228.345
214.756
211.249
271.4
221.106
228.13
212.305
212.701
260.679
246.253
251.663
209.706
213.015
210.031
213.252
251.132
227.62
233.374
247.547
231.098
212.039
209.359
241.336
239.26
210.777
220.87
240.826
220.297
262.357
211.957
211.813
248.354
237.814
242.313
226.23
240.748
213.855
217.165
235.994
233.7
224.808
240.854
232.54
238.881
211.117
212.121
228.077
238.563
224.343
233.548
217.375
215.806
210.877
239.982
280.781
227.074
214.543
227.009
217.383
215.822
229.085
213.673
242.578
210.973
230.512
245.07
212.289
210.909
212.638
226.463
210.581
212.001
218.004
228.648
219.836
211.573
247.013
254.014
216.877
212.743
211.344
221.673
250.212
247.38
226.201
227.169
221.4
224.549
233.926
229.29
223.467
232.071
237.234
245.818
211.07
211.153
224.99
210.942
212.943
211.379
215.972
216.258
237.091
228.813
260.063
217.49
211.576
233.009
210.801
225.051
209.293
243.597
211.148
234.282
228.785
210.913
228.527
219.176
233.235
212.699
212.584
236.108
257.113
209.006
245.297
214.196
243.195
211.685
219.651
239.674
231.764
233.67
230.712
226.956
236.397
213.587
212.848
230.523
273.096
256.297
219.733
221.128
239.545
224.799
242.593
213.616
239.218
216.753
239.332
221.414
211.621
217.17
214.763
224.155
211.953
238.866
233.944
225.595
232.727
211.971
240.945
244.996
242.624
211.019
223.073
253.261
230.1
212.209
246.452
212.65
246.336
247.566
269.245
248.222
212.224
212.445
237.65
211.732
270.878
232.678
228.394
210.458
241.413
212.428
211.109
238.07
236.799
227.043
239.916
213.609
223.69
230.263
224.423
228.254
224.205
210.99
225.614
230.471
211.746
265.101
213.8
236.294
213.829
213.62
234.113
210.48
256.39
211.657
251.751
246.221
233.937
259.95
236.583
219.829
234.312
211.602
246.291
219.882
227.939
209.076
209.778
212.808
227.289
231.066
230.461
238.937
222.42
213.876
213.398
221.574
209.664
225.175
245.427
211.37
215.175
244.902
215.157
237.251
241.471
247.308
210.325
231.111
250.143
231.655
219.536
228.604
210.999
249.477
214.312
211.454
213.7
233.604
222.212
215.253
211.672
224.503
239.43
211.273
223.546
232.455
233.91
213.133
237.716
239.614
221.825
236.372
244.955
211.014
246.034
210.595
228.556
234.938
224.96
216.332
215.218
211.505
246.768
241.371
220.641
211.287
213.837
226.715
216.668
213.157
222.001
242.048
211.81
233.903
240.404
214.519
255.232
242.94
237.299
210.071
211.949
249.104
230.3
214.31
225.936
217.038
215.481
213.604
246.564
213.229
215.569
243.893
230.212
210.951
209.815
209.441
212.472
232.39
209.626
231.742
227.65
213.139
211.751
218.337
262.5
211.436
209.74
244.916
241.755
238.923
211.476
246.068
209.852
243.943
259.797
224.36
213.924
212.831
237.847
211.386
211.979
228.88
234.052
228.95
271.086
212.016
211.071
222.438
214.619
239.359
210.155
209.863
250.089
227.999
227.967
253.714
215.223
245.299
212.358
210.567
220.72
210.108
212.227
235.722
231.787
230.436
213.324
214.666
211.042
213.102
244.448
211.87
213.024
229.515
209.676
219.19
246.736
232.17
209.526
239.895
212.058
224.577
237.504
210.082
212.002
236.98
231.298
241.062
211.484
230.222
247.496
229.398
235.036
211.286
243.911
234.158
213.479
215.389
237.343
210.944
233.537
264.64
222.705
216.416
210.115
241.558
212.073
220.583
212.757
223.616
242.991
238.993
212.263
247.653
237.898
221.953
227.27
213.215
247.025
210.886
230.508
216.91
250.956
257.039
235.615
211.914
216.212
246.074
211.977
211.528
211.596
239.119
213.209
235.162
233.859
235.127
230.14
245.286
238.029
210.267
211.587
219.156
238.953
227.736
237.827
218.152
252.124
271.076
213.174
236.636
211.564
211.561
233.262
222.878
224.491
267.06
234.787
226.861
214.968
210.754
237.139
246.549
216.891
228.044
213.226
212.885
225.434
239.484
210.805
232.32
210.261
273.017
250.345
213.107
241.827
257.457
226.711
212.851
222.973
212.092
211.222
222.645
230.822
222.19
212.219
226.361
221.069
267.817
267.787
273.206
210.875
239.887
211.231
227.95
233.09
210.741
213.61
219.363
211.318
214.314
241.534
231.225
209.993
212.539
225.773
227.737
220.645
231.291
254.47
211.853
212.338
252.631
283.266
213.122
223.25
211.456
211.722
210.861
208.656
246.505
255.222
230.25
216.456
229.833
242.971
243.137
212.51
240.996
210.81
234.054
211.86
273.501
279.401
209.709
220.006
236.416
230.093
245.492
211.417
247.236
231.213
209.578
216.016
228.334
230.853
210.552
238.669
246.686
257.915
211.669
233.268
275.232
237.095
213.301
210.216
234.371
219.768
211.94
229.665
254.555
220.303
210.854
211.573
216.514
243.309
239.805
212.26
238.394
209.663
221.581
225.673
268.473
212.198
223.212
212.079
281.864
224.189
241.917
211.961
235.995
242.284
224.804
216.875
270.854
210.475
210.689
213.356
208.866
233.404
219.879
209.472
210.679
252.314
225.593
210.598
227.114
211.379
242.989
209.894
228.536
229.908
220.394
210.523
239.437
248.406
211.181
258.44
248.284
210.928
211.298
210.691
248.811
213.636
233.402
257.58
213.509
226.461
230.604
212.753
218.421
229.067
232.739
221.751
254.033
237.394
217.976
214.155
219.746
210.545
233.992
236.065
233.284
213.182
231.249
216.254
217.412
218.176
212.545
244.167
213.28
211.562
225.399
231.719
211.496
231.371
218.488
211.137
237.922
222.056
237.487
214.113
213.156
230.358
210.848
213.464
225.711
212.36
209.547
211.606
244.642
210.45
217.905
210.753
216.909
241.086
227.129
211.034
213.516
210.418
221.15
236.149
277.438
211.364
237.915
211.409
210.036
221.029
225.456
210.958
220.273
210.978
234.314
212.929
218.021
254.063
212.227
211.986
228.004
210.513
210.802
242.252
258.42
241.962
223.305
243.928
210.719
237.769
210.665
210.419
233.444
212.879
212.88
210.422
249.289
230.533
212.543
213.891
215.035
235.173
213.461
220.816
214.702
266.683
211.316
220.513
236.581
233.259
228.707
238.636
216.136
269.074
232.116
210.947
221.073
224.105
210.874
219.706
247.16
234.179
213.893
213.038
217.456
210.877
210.634
221.871
220.277
245.852
248.503
223.991
271.374
211.631
213.585
243.908
240.872
221.952
209.89
228.763
231.162
211.097