# vtk DataFile Version 3.0
vtk output
ASCII
DATASET POLYDATA
POINTS 10000 float
-23.8568 -31.4932 7.4501
-21.8927 -33.7573 11.4643
-22.1439 -31.7235 10.097
-22.837 -36.3186 13.98
-21.6159 -33.2353 11.1151
-21.7065 -32.5012 13.1513
-22.7377 -31.2702 8.51736
-19.5483 -30.1547 10.1297
-20.5888 -30.1911 10.6957
-22.7148 -30.8767 9.21753
-22.5133 -32.3597 8.28959
-22.6151 -33.586 9.37617
-22.6225 -35.5012 13.5757
-21.6909 -37.2701 11.4408
-21.041 -35.229 12.3542
-22.1321 -32.2165 10.2919
-19.7695 -41.5273 9.03779
-21.7637 -34.0176 13.0794
-20.756 -31.2081 10.7812
-19.6266 -30.7415 11.7975
-21.4861 -44.0533 7.99984
-22.2428 -34.6073 13.5134
-21.3855 -33.5161 11.7077
-23.0619 -33.4249 7.90258
-22.699 -32.0486 9.58491
-23.1445 -31.7824 7.15306
-20.6874 -39.6344 8.41579
-23.1916 -38.0068 14.6407
-22.9985 -32.0437 8.86728
-20.3918 -32.2944 11.6688
-22.2468 -37.5978 7.82934
-19.1414 -28.1329 10.3677
-23.3375 -30.6605 8.11136
-22.948 -33.5335 8.79774
-21.4181 -31.3512 10.0622
-21.3586 -33.0316 11.8867
-22.346 -30.631 8.87605
-21.7896 -34.3132 10.9349
-20.9596 -31.9181 10.3452
-21.2145 -33.4393 12.2214
-20.4291 -41.4097 8.3265
-21.5793 -36.7706 8.41969
-21.1873 -32.3051 11.2745
-22.2251 -33.8561 10.4937
-21.3549 -31.0993 10.748
-21.7698 -30.8662 9.99383
-22.7883 -31.5309 9.44405
-22.6431 -32.8564 10.084
-20.0376 -30.4163 10.403
-20.6434 -40.1693 7.98712
-20.2372 -31.7658 11.576
-21.0475 -38.5813 10.2178
-22.7029 -34.9195 9.56099
-21.5845 -37.0236 8.46308
-21.5403 -33.9453 11.9397
-20.7453 -39.9284 9.34764
-21.5656 -37.231 12.8779
-24.3256 -29.8861 6.9267
-21.3577 -36.139 9.77539
-20.9523 -30.7094 10.7044
-22.8985 -32.3185 9.46356
-22.0521 -35.2437 9.72791
-23.9826 -28.8367 7.15238
-21.9244 -30.5734 9.95462
-23.2219 -32.7285 9.07148
-23.5544 -30.5137 7.9368
-23.4458 -37.045 15.0005
-22.3755 -30.7665 9.54069
-27.4413 -38.4529 17.6624
-22.9655 -35.8564 13.9605
-21.5024 -37.3708 12.6627
-22.8137 -33.3035 8.04209
-21.2961 -35.5794 12.2479
-21.6422 -36.0497 9.17254
-22.8988 -36.5454 14.0761
-20.2588 -44.4988 7.98806
-20.8783 -30.9985 10.6741
-24.418 -32.1631 6.78688
-21.1955 -31.038 11.0129
-21.8459 -39.9268 7.82023
-19.3184 -42.8998 8.48877
-21.1312 -39.5678 7.71925
-22.0852 -35.613 9.64584
-21.4612 -35.276 11.9636
-21.2868 -30.7767 10.2908
-21.3042 -33.9076 12.9166
-22.54 -32.6189 9.57938
-22.4143 -33.2962 9.87333
-21.1289 -38.8505 8.70992
-22.0035 -37.1908 13.3982
-23 -35.2831 7.62072
-22.8987 -31.4377 8.65504
-21.2713 -31.152 11.0726
-31.4323 -37.7774 19.1286
-22.5606 -34.6559 9.00349
-22.9148 -31.448 9.28898
-22.2429 -37.2658 7.61127
-20.2776 -44.2192 8.64062
-21.9375 -32.2812 10.4047
-24.1924 -32.4437 7.10309
-22.1649 -33.8796 8.89846
-22.0429 -33.9688 8.88291
-22.9395 -34.6875 8.13533
-21.1786 -31.909 10.8251
-21.3318 -37.9118 9.0336
-21.5012 -37.6113 8.95484
-20.9283 -33.2259 12.0895
-22.0788 -31.7772 9.9134
-21.59 -33.8341 11.559
-19.6146 -29.7242 11.298
-22.6926 -32.5261 9.02035
-20.4428 -31.8341 11.285
-19.7501 -33.2126 11.7334
-21.9339 -35.2444 11.31
-22.7595 -32.497 9.42015
-21.903 -32.2125 10.1844
-20.4226 -40.0479 8.31789
-21.3439 -28.0607 9.15648
-23.6383 -31.021 7.53926
-23.0313 -30.7982 9.00464
-21.0739 -33.9083 12.8768
-23.607 -39.0039 14.959
-22.7753 -32.9907 9.77985
-20.5128 -32.6105 11.3696
-22.819 -32.4477 8.9478
-20.4985 -42.3001 8.59527
-21.6247 -33.1598 10.6816
-22.1369 -33.4607 13.0541
-23.3316 -33.0634 8.83893
-22.7549 -32.9405 9.60476
-21.2212 -30.2632 9.83546
-21.2786 -44.2511 8.1682
-22.1654 -35.1749 8.8376
-21.4051 -32.3141 11.0288
-22.0769 -31.403 10.3242
-19.2863 -45.4152 8.73963
-22.5019 -34.9971 9.95216
-20.8864 -31.5273 10.7173
-21.2204 -32.4816 11.1286
-23.0266 -30.2693 8.12578
-21.3994 -30.0244 10.2497
-22.2565 -39.3945 7.99333
-20.6438 -32.6782 12.3726
-24.0533 -39.2743 16.1182
-22.4848 -34.2115 9.87359
-22.5371 -35.4644 13.5931
-23.7065 -29.7776 7.92615
-21.75 -36.4179 8.45227
-24.2752 -31.2169 6.94123
-23.3359 -30.9815 7.56761
-19.9835 -31.9074 11.8174
-21.1203 -43.4562 7.96587
-22.1823 -42.1774 7.07822
-23.3185 -37.6289 14.7271
-20.0727 -31.7726 11.0499
-21.5734 -29.1535 9.58394
-24.425 -31.7068 6.77131
-21.4109 -28.9467 9.47481
-22.3392 -32.874 10.0662
-21.9599 -31.9557 10.4459
-23.4772 -32.2766 8.01922
-21.268 -32.4697 11.2286
-19.4723 -43.29 8.1183
-21.9998 -35.3939 11.5964
-21.9502 -35.7248 13.0794
-22.9775 -37.2172 14.0784
-23.7693 -30.5725 8.01219
-23.5808 -31.2965 7.64923
-22.4192 -34.48 10.6097
-22.7262 -34.5693 8.39979
-23.0753 -31.6124 9.40316
-18.5086 -43.3897 9.64764
-23.2768 -38.8372 14.8927
-24.3226 -39.8286 16.3205
-21.9458 -35.6528 10.3151
-21.8392 -35.1625 11.5402
-22.451 -34.1933 8.44168
-23.0049 -33.6412 9.13007
-22.115 -29.3863 9.05354
-23.3103 -32.6589 8.57883
-22.3387 -30.7504 9.59277
-23.5229 -30.9885 8.36016
-22.9888 -29.4668 8.51575
-23.6799 -30.7195 7.96926
-22.5532 -31.5578 9.78017
-21.3444 -32.3543 11.1558
-22.5835 -30.4795 9.26723
-21.3791 -32.443 10.732
-20.8211 -33.6288 11.7121
-22.2764 -30.1823 9.61047
-21.9357 -31.1347 9.50014
-20.4462 -28.9438 9.8308
-22.2999 -36.3127 10.3915
-21.1714 -33.5039 11.0745
-23.5697 -39.6168 15.2019
-22.6834 -32.1833 9.66636
-24.6879 -47.4697 7.34557
-21.9241 -35.3766 12.9663
-22.0444 -34.5683 11.8443
-22.958 -32.4131 9.40096
-22.4171 -31.2312 8.46212
-21.3809 -34.5586 11.7294
-21.2233 -38.8048 8.63197
-20.803 -43.9284 7.732
-20.5116 -31.7519 11.5717
-20.1858 -31.0477 11.0878
-23.0117 -29.061 7.74823
-22.9934 -30.4629 8.76153
-23.1373 -29.4231 8.4036
-24.2991 -38.9447 15.5145
-25.0812 -29.6964 6.36711
-21.2943 -42.7113 7.85666
-23.8498 -30.884 8.0527
-22.9405 -33.716 8.80766
-21.5512 -37.2355 8.91192
-20.7247 -39.7463 8.97167
-22.238 -29.52 8.8375
-22.6211 -32.5865 9.71869
-21.8434 -34.2159 10.9591
-20.9156 -40.6056 8.52236
-21.7152 -34.7664 11.1762
-21.4878 -31.9104 10.1566
-21.1521 -38.2373 9.08007
-22.4501 -32.1134 9.53153
-22.7361 -33.8815 9.94858
-23.2286 -28.9269 7.91646
-22.3884 -36.5697 7.59192
-21.1944 -37.7111 9.67278
-22.3157 -35.9461 9.63251
-22.4795 -34.5696 10.3612
-20.0313 -32.496 12.1304
-22.354 -30.412 9.62014
-23.0245 -29.799 8.77099
-20.4415 -39.3822 9.22379
-22.8255 -33.6739 8.89032
-23.4429 -32.2686 7.91305
-22.3111 -33.0184 9.55959
-21.6316 -36.5386 11.5796
-21.6143 -36.647 9.35615
-20.7888 -39.033 9.52918
-22.2342 -31.8812 10.2396
-21.9187 -33.5055 10.4022
-23.9062 -31.1707 8.4065
-19.6734 -30.5539 11.1573
-21.0026 -30.4697 10.2453
-20.7377 -43.7301 7.6754
-23.1994 -33.241 8.42765
-21.8109 -31.8434 9.96254
-26.0293 -29.9399 6.22294
-22.5238 -30.8488 9.18353
-22.5781 -35.0505 10.3334
-22.8956 -33.0887 7.48072
-22.4449 -32.5412 10.2341
-21.5759 -31.4125 11.1798
-19.9288 -42.6674 8.13075
-22.9991 -35.8629 7.57685
-22.8362 -33.9786 9.04151
-21.7039 -35.882 12.6364
-23.9294 -37.6925 15.3141
-20.5891 -38.252 9.08817
-18.8716 -42.8771 9.66131
-23.035 -31.2079 9.36016
-22.2331 -46.7503 8.20266
-21.5463 -33.7617 12.5307
-22.8049 -32.9915 10.5341
-22.5049 -31.1994 9.26662
-22.9187 -35.244 7.94613
-21.61 -33.3872 11.9636
-22.1006 -40.384 7.90606
-23.7108 -30.6519 7.93985
-25.3069 -29.6023 6.8018
-20.6053 -31.3189 12.6754
-23.3171 -29.9499 7.94024
-20.7158 -32.9222 12.2307
-21.2859 -32.1559 11.9337
-22.7652 -32.2781 8.98258
-20.4552 -40.6779 9.41041
-21.0731 -31.8137 11.1799
-23.2167 -36.8696 7.43946
-21.4779 -37.5413 9.36546
-22.9689 -33.1307 9.26206
-23.2652 -32.7121 7.80219
-18.6447 -43.4043 8.43763
-28.5883 -38.083 18.2073
-22.5343 -30.9682 9.50854
-21.3324 -31.1358 10.3132
-22.1046 -34.0263 12.8519
-22.0063 -32.3426 10.5805
-23.7006 -31.9611 7.90125
-21.2749 -30.2763 10.1634
-22.8466 -31.5086 9.43803
-23.5798 -31.943 8.34566
-21.6812 -32.6599 10.6115
-21.6405 -34.3455 12.8821
-22.92 -29.2611 8.57862
-19.9569 -43.4132 8.5678
-21.0173 -37.1944 9.7226
-22.6977 -33.7607 7.80517
-22.5625 -30.4284 8.92481
-22.277 -31.0331 10.056
-22.0606 -45.9659 7.80131
-20.8911 -32.7075 12.2453
-20.6829 -32.0066 10.8113
-23.2252 -36.3568 14.2234
-20.8821 -32.3848 11.5412
-21.8676 -34.5542 13.2103
-18.1154 -30.1057 9.73491
-22.3535 -33.5494 9.18608
-20.1416 -31.3154 11.306
-21.1869 -44.7379 8.66162
-22.2155 -37.8994 7.68172
-21.9223 -36.0119 13.3134
-21.4538 -37.9276 13.0784
-21.903 -31.1015 10.7071
-23.2777 -32.6887 9.8387
-22.0842 -30.1569 9.74585
-19.5744 -31.3277 11.3847
-21.1884 -33.575 12.1223
-23.1009 -32.0672 7.78331
-23.0206 -31.7314 9.58
-22.9902 -31.3598 8.05581
-21.3642 -33.4798 11.59
-21.2277 -33.7364 11.0722
-22.3303 -36.8635 13.3276
-23.1805 -31.5107 8.47867
-22.0576 -35.7662 10.0031
-20.2348 -41.6021 8.82948
-21.8847 -29.7773 9.48619
-21.0634 -38.2672 8.29803
-23.5731 -42.1582 7.10408
-25.6603 -39.0275 17.0675
-22.6863 -37.7854 14.0276
-21.7798 -33.7635 10.7787
-23.5488 -33.2105 7.55098
-21.8548 -36.4257 10.0126
-18.9353 -42.3039 9.44057
-21.5345 -33.8231 12.535
-23.0818 -32.0208 9.05663
-21.0995 -44.0741 8.81255
-20.801 -30.8357 10.9178
-22.0935 -35.3497 9.69986
-19.8708 -40.3666 9.15894
-19.8005 -31.2684 11.8715
-22.7229 -29.8771 9.1269
-21.7467 -34.8017 12.9195
-19.6258 -41.0801 9.75779
-24.2716 -39.4574 15.7892
-21.9445 -34.1519 13.363
-19.465 -31.4002 11.9664
-22.296 -34.1423 9.36922
-23.7342 -30.2741 8.30342
-22.3518 -32.3368 9.50988
-20.3723 -41.467 8.17647
-21.3137 -30.5981 10.0661
-20.3854 -32.9695 11.4045
-22.8687 -34.2488 8.85638
-23.3282 -30.8511 8.3099
-22.2437 -34.0616 9.09273
-22.8964 -34.5677 9.23736
-22.0563 -36.1025 8.93385
-23.0353 -30.4473 8.75295
-23.409 -36.0055 26.1643
-22.6962 -30.5209 9.02363
-23.2087 -37.8529 15.1409
-21.9463 -45.8216 8.03085
-24.1904 -29.8703 7.43226
-23.1924 -38.9465 15.0388
-22.5569 -34.0595 10.3155
-22.2464 -34.924 8.68624
-22.0472 -36.4964 13.478
-20.4973 -28.3589 9.25359
-20.7967 -32.7216 12.0061
-23.8884 -30.5208 7.66298
-21.3454 -33.8863 11.0248
-19.9535 -41.9848 9.33975
-25.5451 -39.009 17.0732
-22.8417 -32.0807 8.98482
-21.3633 -38.1746 12.0815
-22.9814 -37.6753 14.345
-19.8024 -33.6452 12.4952
-20.3781 -31.122 10.5048
-23.4325 -31.5537 7.91903
-23.1064 -39.4556 14.6446
-23.0236 -30.314 7.93495
-29.0787 -37.9209 18.3444
-22.5862 -35.419 13.7721
[...]
POINT_DATA 10000
SCALARS t float 1
LOOKUP_TABLE default
231.759
220.506
220.281
218.717
220.65
220.286
224.894
221.421
221.408
221.748
225.984
220.56
219.319
218.439
221.037
220.232
218.695
220.367
221.469
221.348
223.701
219.69
221.184
227.921
220.731
234.017
222.775
217.76
222.952
221.94
227.203
221.188
227.433
222.651
220.897
221.275
223.39
219.868
221.413
221.244
222.911
223.47
221.322
219.586
221.097
220.607
221.123
219.678
221.506
225.6
221.856
216.68
219.301
223.129
220.952
217.689
219.801
236.339
218.781
221.348
220.832
219.097
235.11
220.692
221.676
228.651
217.545
221.197
214.945
218.763
219.819
227.08
220.632
219.918
218.558
224.004
221.388
236.533
221.288
226.71
221.645
227.621
218.966
220.54
221.042
220.835
220.639
219.887
221.203
219.324
229.244
224.151
221.258
214.24
221.192
221.441
228.823
219.887
220.381
234.04
222.312
222.384
225.877
221.171
219.765
220.275
221.503
220.488
220.821
221.107
222.205
221.772
222.306
219.541
220.915
220.407
223.35
223.782
231.276
222.67
221.031
217.193
219.996
221.837
222.513
220.826
220.475
220.194
222.566
220.373
221.343
222.472
221.825
220.999
220.428
219.066
218.563
221.424
221.197
227.48
221.096
225.507
221.504
216.292
219.286
219.369
229.063
223.35
235.733
231.101
221.856
224.415
231.455
217.759
221.855
222.002
236.833
222.334
219.892
220.426
227.51
221.206
223.948
219.712
219.984
218.351
228.142
230.38
219.045
224.212
221.11
216.508
217.369
216.146
218.45
219.939
224.155
221.05
223.059
223.979
221.117
225.73
225.503
228.36
220.488
221.118
221.769
220.907
221.647
221.318
221.473
221.791
217.701
221.003
216.932
220.537
226.136
220.171
220.305
220.903
225.292
220.89
221.654
225.992
221.763
221.637
230.523
223.9
226.129
216.674
240.828
225.547
227.752
222.514
220.654
219.467
223.922
220.33
219.894
221.783
219.906
220.843
219.401
220.942
219.217
229.556
229.123
217.912
218.646
218.878
221.834
221.194
224.181
218.33
222.187
228.232
220.72
219.238
219.112
217.605
220.211
220.026
225.376
221.376
221.235
226.515
224.529
220.573
241.991
221.875
218.45
231.047
219.895
221.085
223.976
229.395
221.321
220.333
217.022
219.529
216.419
221.342
220.881
220.93
219.541
221.616
226.975
221.005
225.852
228.583
237.467
220.934
228.809
221.574
221.38
222.446
217.274
221.405
230.133
218.626
220.887
228.848
221.972
214.443
221.164
221.02
220.37
220.322
228.383
221.08
221.126
225.484
220.539
220.619
225.337
220.775
218.269
228.498
223.148
220.338
223.984
221.45
221.579
218.343
221.646
220.159
221.347
221.157
221.712
219.107
228.184
219.8
219.488
220.712
219.741
221.146
221.675
221.278
229.251
220.721
227.667
221.137
220.879
219.237
224.893
218.17
219.781
221.76
223.866
231.081
215.578
218.382
220.097
230.411
217.766
217.085
220.93
222.068
218.591
221.435
219.047
218.333
221.549
222.516
220.448
216.34
216.477
219.997
221.508
220.409
226.417
221.014
223.955
220.977
221.961
222.025
226.085
221.296
220.137
220.924
223.946
217.089
222.683
217.333
222.442
232.509
217.238
219.145
222.665
219.494
223.109
221.62
230.527
220.648
217.208
215.585
222.462
218.886
218.075
222.027
221.671
228.431
217.459
228.739
214.298
219.223
221.493
219.814
221.181
217.486
220.05
218.64
220.95
217.121
217.424
221.552
218.618
224.052
220.535
219.733
219.756
216.968
222.248
221.536
230.086
216.352
221.202
224.746
220.334
215.559
220.015
221.153
238.709
219.608
221.362
221.493
215.952
220.757
219.117
226.148
226.006
221.431
223.241
218.085
234.753
217.537
220.547
224.927
242.698
221.214
222.571
229.306
220.865
220.722
220.359
225.215
222.428
223.809
220.815
225.036
220.91
223.004
222.612
221.427
217.06
221.484
226.096
220.617
222.678
221.451
219.847
220.939
221.672
224.834
226.475
221.474
220.129
220.863
220.634
221.165
221.578
224.333
221.166
230.672
240.664
229.209
221.235
221.338
219.604
219.183
217.037
219.797
222.167
221.049
221.169
218.271
220.334
221.782
224.764
228.086
221.596
218.383
220.899
220.197
217.728
225.618
221.023
220.488
219.406
222.743
223.533
224.093
223.124
217.661
225.138
220.754
219.658
221.112
219.356
230.234
227.117
221.639
221.121
227.144
220.229
219.987
220.608
221.462
228.063
219.888
221.398
225.288
220.845
224.97
225.327
220.848
217.574
222.12
218.541
221.412
221.371
223.639
233.439
218.518
221.895
221.926
220.218
218.964
225.764
221.041
220.395
219.329
229.067
225.488
220.513
221.778
228.401
216.3
220.58
217.807
224.785
221.227
219.072
217.953
228.403
221.139
220.932
221.278
226.582
220.642
224.789
233.516
224.504
213.943
225.329
218.933
219.471
225.116
221.419
219.82
219.037
221.501
219.947
219.557
220.232
224.05
219.808
229.469
218.091
220.943
224.151
226.04
222.69
222.466
220.194
221.132
216.208
220.244
220.146
219.815
224.5
220.537
220.796
217.388
221.381
224.287
230.858
221.066
222.736
218.144
228.466
219.18
219.788
220.738
226.925
221.148
218.752
241.914
226.091
221.241
223.894
221.923
217.448
220.706
219.806
229.042
221.633
221.473
219.126
219.704
219.906
221.017
220.135
219.239
219.439
221.395
220.446
217.424
220.501
220.813
222.389
221.401
218.059
225.484
219.156
220.331
219.327
220.827
224.492
229.459
221.716
221.378
217.358
221.475
220.497
232.673
220.982
220.903
220.437
222.697
219.082
220.833
219.804
221.901
222.886
221.842
219.512
222.011
221.221
219.133
221.482
221.513
225.649
220.475
234.494
226.443
227.25
238.292
219.052
219.119
219.099
224.484
225.589
221.384
222.466
219.083
229.237
221.198
217.032
220.259
222.783
215.847
224.908
223.011
217.347
220.884
219.698
221.61
220.111
220.528
221.598
217.594
229.826
221.07
221.605
229.691
221.596
220.158
223.991
231.706
220.71
221.359
221.458
225.758
219.429
220.348
220.568
222.309
227.074
225.538
223.934
221.228
222.244
222.479
220.396
227.643
220.772
221.328
221.283
226.237
227.119
220.87
219.883
216.806
223.789
224.961
221.228
220.857
220.302
220.2
227.997
221.088
221.731
221.532
221.676
220.865
224.396
221.399
221.075
225.096
221.544
218.519
220.173
219.199
225.257
220.656
220.184
228.55
221.32
220.52
220.444
228.596
224.384
228.303
224.871
220.868
221.645
220.584
220.049
213.638
221.99
219.078
221.136
216.181
222.04
229.253
222.747
221.958
220.083
221.15
232.012
221.988
222.436
221.319
223.105
224.632
227.508
227.466
221.479
228.557
221.012
220.179
220.64
220.304
224.713
221.499
229.159
227.019
221.367
223.751
227.372
218.675
223.189
219.158
217.877
220.116
221.198
223.235
220.256
221.111
221.564
226.145
222.503
220.703
218.852
220.84
220.915
228.396
236.1
220.683
220.99
233.05
220.119
214.068
219.657
221.206
224.821
217.467
219.372
221.271
218.658
220.209
219.057
221.436
219.611
224.953
225.778
237.559
231.073
225.209
241.135
221.533
226.544
221.831
231.576
221.187
221.263
224.978
221.269
221.44
223.92
221.378
222.361
221.455
241.363
222.056
220.413
218.573
219.902
221.054
226.854
221.732
226.806
217.942
222.607
219.628
219.592
234.821
220.251
219.671
221.247
220.095
223.174
226.156
220.534
219.609
220.24
221.111
222.326
221.166
222.243
221.431
218.363
221.223
221.197
220.056
223.92
223.47
222.043
233.846
221.018
214.984
220.446
221.379
223.382
220.016
220.347
220.119
221.424
222.673
219.685
217.701
234.91
218.808
221.547
228.434
221.302
224.522
221.413
221.052
226.871
223.819
213.57
221.303
224.937
221.405
221.468
221.987
221.575
221.932
216.609
220.331
220.307
217.047
220.868
217
220.791
221.985
220.603
219.469
220.596
216.248
220.584
220.712
221.95
226.407
227.403
221.362
217.105
220.001
219.751
221.643
225.792
217.775
221.333
219.86
221.585
220.133
219.587
221.076
223.29
226.07
219.357
233.055
220.844
227.27
219.101
230.636
219.282
224.544
218.888
229.52
221.181
222.63
217.539
223.867
227.485
221.202
218.503
218.984
220.993
220.544
225.568
221.936
226.866
225.114
220.324
225.965
215.522
220.09
217.587
223.65
221.135
224.932
236.929
227.812
220.801
221.08
221.553
219.208
238.6
221.696
228.23
221.359
222.418
240.779
222.394
219.806
221.321
219.691
216.456
220.964
218.119
220.528
215.329
221.272
219.564
219.022
220.844
221.802
220.867
220.909
227.872
222.998
221.382
221.281
222.23
220.706
221.087
222.047
220.069
218.473
220.633
221.521
224.862
219.945
223.805
224.526
218.715
219.737
219.929
220.774
222.583
226.368
221.522
219.642
221.493
220.552
226.732
231.887
218.842
220.154
221.003
219.648
217.807
219.082
221.8
221.71
218.851
216.435
225.246
221.236
221.431
216.819
226.728
237.782
219.121
221.327
218.7
228.786
221.863
232.615
227.345
221.478
222.926
233.109
223.755
220.503
226.154
220.774
219.231
222.752
230.501
223.009
231.35
236.298
226.133
221.96
226.355
220.505
219.776
220.494
232.83
223.49
221.19
219.861
221.582
222.608
219.802
220.017
231.342
221.396
222.327
218.584
218.706
221.542
234.572
220.337
231.812
220.586
220.475
221.307
225.633
216.523
233.44
220.578
218.023
222.147
219.523
220.748
223.207
236.405
221.386
237.934
228.352
220.46
224.03
227.84
220.553
221.423
218.53
220.164
227.482
220.167
227.224
219.942
224.397
232.425
222.716
232.485
220.657
220.093
228.545
225.399
220.794
220.691
226.985
221.599
231.022
220.937
222.316
220.42
224.835
220.765
223.173
219.438
229.089
220.836
219.623
220.857
220.319
222.259
221.408
220.216
221.788
221.876
226.426
227.248
217.727
220.794
224.126
219.931
219.81
221.451
226.642
220.936
219.601
222.485
220.463
221.361
221.159
221.27
220.947
218.146
221.724
215.858
217.997
219.831
221.778
221.419
228.384
220.285
221.527
217.54
235.111
221.705
218.674
218.95
221.099
217.4
221.534
221.434
219.411
218.832
220.472
217.272
231.273
221.047
225.549
221.722
224.084
221.165
221.986
221.643
221.579
225.338
220.844
227.498
225.026
220.557
220.17
221.588
226.095
220.185
217.18
221.14
222.916
220.102
224.225
221.244
221.403
221.433
224.009
221.404
233.683
221.007
224.907
226.386
220.199
219.854
217.606
225.806
222.013
218.189
226.518
221.994
221.035
221.255
220.962
221.016
222.167
220.186
219.697
214.234
220.317
225.947
220.566
219.957
224.369
232.009
221.265
220.884
222.156
224.782
223.634
219.643
221.395
221.239
242.81
215.521
216.413
219.446
224.166
217.215
226.165
219.936
221.729
220.203
221.588
221.529
228.395
220.959
220.82
219.202
221.401
219.943
225.423
226.334
220.638
219.766
219.593
221.356
237.349
224.247
221.207
219.947
220.748
221.003
220.492
220.905
219.673
233.333
219.06
223.59
221.728
219.604
227.487
219.851
220.902
220.262
218.186
221.192
228.041
222.416
214.058
220.444
221.037
219.314
221.494
228.289
217.199
219.651
219.991
219.285
226.99
221.201
220.275
218.524
219.559
221.065
223.169
222.459
220.33
231.955
220.607
222.211
220.834
220.478
226.201
230.048
221.45
219.836
234.804
216.579
221.069
221.137
221.782
221.774
214.422
232.956
215.573
222.491
219.687
222.264
221.589
222.045
229.667
238.561
218.597
221.894
222.487
221.419
221.112
221.853
217.973
225.21
221.756
223.275
221.493
222.895
220.799
220.217
221.132
220.782
220.643
227.213
220.947
222.006
221.341
217.085
218.453
220.132
221.532
225.361
220.973
220.095
218.28
221.803
220.54
221.693
228.253
229.547
225.937
220.658
228.514
221.058
222.282
220.256
222.183
219.941
219.896
221.54
219.899
220.374
221.881
218.127
220.646
220.828
216.262
221.393
219.367
220.812
217.235
220.456
219.731
218.105
222.506
230.982
221.768
216.697
222.2
222.297
222.731
223.784
217.142
236.898
223.229
224.833
219.668
224.244
220.268
223.568
221.11
227.536
225.109
221.541
221.472
226.039
223.593
223.181
221.329
223.995
219.593
221.744
221.331
221.357
223.861
225.497
231.516
220.043
221.112
221.514
223.899
221.875
218.932
221.252
220.315
220.392
220.156
234.079
219.843
218.899
221.113
221.623
220.174
230.259
221.797
221.399
217.462
215.874
218.605
218.043
223.042
220.279
221.045
221.726
221.048
217.556
223.301
218.627
219.912
220.224
220.843
228.079
238.598
220.909
218.979
226.272
220.099
231.415
220.26
232.727
228.737
221.445
217.733
227.322
224.734
216.497
220.815
219.974
221.324
224.283
219.633
219.762
221.168
221.915
221.391
222.998
225.109
221.16
226.862
219.132
220.476
220.042
217.323
220.552
220.711
219.504
220.905
223.045
221.666
223.038
221.487
219.719
221.837
218.054
220.418
232.579
220.108
221.416
216.203
220.94
231.352
229.332
221.671
221.543
222.996
221.95
227.637
219.98
220.661
217.997
220.566
221.193
224.713
221.191
220.338
219.13
223.874
219.108
236.172
220.195
228.628
219.114
219.068
218.968
225.99
220.749
225.666
214.242
218.777
222.507
221.387
220.824
221.492
233.101
223.087
228.804
223.306
221.436
221.232
221.225
229.236
227.997
218.314
228.115
220.882
217.262
224.402
221.878
228.319
220.391
225.083
219.229
221.409
221.884
230.867
232.857
218.645
221.252
221.075
221.226
220.543
220.328
222.812
221.348
218.441
237.572
223.767
220.852
224.332
218.779
222.499
218.727
217.589
228.101
227.117
220.579
220.523
219.215
221.53
220.12
226.164
221.234
228.675
221.517
229.063
220.926
221.08
227.561
226.432
221.307
223.803
222.796
221.762
236.709
223.241
217.492
221.207
221.605
221.562
216.75
223.88
221.622
218.562
219.899
223.929
229.853
222.024
231.847
223.658
224.342
216.282
226.34
223.878
213.766
221.758
218.458
216.827
225.369
219.299
220.455
228.391
220.197
221.236
221.329
225.524
226.801
223.143
224.492
217.589
219.25
221.59
220.32
220.387
220.369
220.95
220.181
219.735
219.822
219.488
219.65
222.632
222.355
218.926
220.887
220.319
222.058
216.616
219.913
221.128
217.587
221.438
223.158
223.899
223.906
221.753
217.312
221.717
219.5
221.66
231.364
220.338
221.535
221.269
231.296
223.521
221.62
220.831
221.889
226.61
222.325
233.778
219.519
221.13
221.321
230.702
221.486
221.754
220.673
223.325
228.086
220.936
221.222
220.929
219.948
221.373
221.771
220.761
232.436
219.404
225.377
231.958
217.501
220.202
215.558
215.992
220.467
237.703
220.497
221.961
223.831
226.111
231.068
221.151
219.444
222.286
221.258
221.814
224.236
220.842
222.626
216.062
220.307
220.185
219.352
221.139
221.513
222.811
226.478
221.726
220.703
233.489
221.744
217.404
221.937
229.843
221.787
229.476
224.155
224.375
219.432
222.217
220.252
217.106
221.505
221.372
216.748
220.649
219.567
220.079
219.955
225.07
227.226
220.492
219.018
222.186
219.161
224.944
222.397
222.056
221.332
221.036
218.024
222.843
221.726
221.303
221.273
221.764
220.662
224.802
221.878
220.179
216.374
217.979
220.699
217.292
221.813
220.625
233.442
221.243
214.286
225.057
221.387
219.968
224.512
222.368
240.325
227.745
220.602
226.88
221.767
226.159
220.837
218.397
219.531
220.334
223.292
218.977
227.115
219.829
221.461
230.361
220.092
221.08
221.111
218.353
221.544
218.286
221.03
224.485
222.266
223.728
219.108
221.361
221.567
224.83
223.656
220.022
230.982
221.924
221.581
222.458
220.416
221.741
222.599
220.621
230.977
220.315
224.286
221.108
221.888
219.365
222.595
221.151
226.738
223.156
231.445
219.288
219.994
221.052
220.496
225.161
219.393
222.228
215.218
217.289
218.008
218.502
221.274
219.983
223.318
221.18
220.437
218.695
221.275
220.07
217.106
220.419
217.768
220.602
217.052
221.567
222.757
221.198
220.994
218.679
220.454
223.773
221.463
220.799
229.625
217.72
217.735
220.879
219.614
230.1
220.853
222.391
227.243
217.151
227.046
224.468
222.16
220.958
218.935
226.009
224.233
216.814
221.103
218.599
220.102
221.463
216.385
219.87
220.039
223.407
224.77
221.087
221.966
221.674
228.998
220.662
219.687
220.256
220.311
221.653
221.893
219.621
221.652
218.629
220.393
224.598
216.79
220.026
220.823
225.015
220.537
234.614
218.855
218.101
221.482
222.861
222.362
224.664
226.256
217.786
218.5
218.273
219.72
221.217
218.721
223.387
224.426
222.091
223.321
222.92
223.515
221.116
221.379
227.655
220.818
227.347
219.488
220.846
222.386
222.984
221.296
221.428
216.528
220.444
223.721
221.926
220.323
235.335
228.232
227.001
220.518
221.402
224.469
224.614
220.222
224.401
218.857
223.411
235.386
221.467
220.62
213.952
221.148
223.042
218.039
227.933
222.839
226.875
221.401
219.593
217.419
221.473
223.584
226.605
222.315
226.149
217.85
230.69
220.606
221.695
220.582
220.833
219.923
220.124
220.946
220.276
221.596
220.565
218.785
219.3
218.917
219.721
221.387
230.729
220.868
223.327
238.149
224.134
222.89
239.908
220.437
224.357
221.745
220.489
218.632
222.788
221.265
221.121
219.284
223.968
223.957
228.19
222.255
221.345
219.785
218.606
239.428
221.613
220.758
227.553
220.035
219.553
220.174
218.412
228.37
225.214
221.476
221.086
222.895
220.007
222.328
220.282
222.781
220.52
223.394
220.829
220.892
213.557
220.919
224.325
216.263
219.924
219.592
227.044
220.467
233.588
223.64
222.961
220.892
223.417
221.952
221.937
228.643
216.419
218.947
226.776
220.705
221.912
222.528
219.91
219.985
215.941
221.077
226.549
217.833
225.803
220.2
218.996
225.454
220.872
223.883
219.095
225.489
220.94
217.596
224.415
217.979
232.846
220.188
223.735
221.201
219.783
236.577
223.927
213.914
222.853
221.843
222.441
219.21
220.367
220.409
224.47
225.43
226.263
220.154
221.575
221.5
221.632
228.632
220.881
217.246
221.228
218.255
217.893
216.029
239.923
221.741
220.59
221.796
225.717
222.957
222.163
224.732
221.174
225.774
217.073
220.564
220.14
221.523
227.273
220.078
220.048
223.164
219.142
217.756
220.429
220.113
221.611
220.33
221.417
217.503
220.855
220.713
236.22
222.287
221.958
229.893
222.155
223.314
219.942
221.138
220.36
221.273
221.052
224.71
221.18
224.556
221.923
220.675
220.745
216.45
220.445
219.967
220.593
217.024
221.313
220.66
225.208
220.533
221.896
223.187
221.193
223.361
225.455
220.929
222.001
230.311
220.647
222.734
219.682
222.824
231.284
224.405
227.623
219.172
224.888
224.315
221.309
223.169
221.966
219.078
223.329
237.204
223.674
222.441
221.198
223.85
220.989
219.55
221.959
217.084
231.213
219.35
219.099
230.14
229.687
220.471
226.643
219.103
230.091
220.251
220.972
220.399
228.176
224.868
222.139
215.445
220.15
221.932
221.48
220.85
221.186
222.599
220.342
219.411
225.41
220.979
219.354
238.216
218.339
220.879
221.026
219.713
226.07
220.954
220.772
222.709
227.018
222.377
220.459
223.307
220.293
220.851
218.542
229.339
220.232
217.68
220.501
222.237
219.916
221.322
224.28
229.888
220.887
227.378
219.224
221.306
221.503
225.26
221.771
221.279
221.375
236.985
224.008
220.243
222.698
228.905
220.265
219.425
221.141
221.299
220.55
219.511
229.962
220.761
221.095
220.934
221.475
220.164
225.375
216.434
221.916
226.727
215.737
221.025
221.424
218.358
223.681
221.248
215.289
221.705
233.294
221.894
219.088
219.629
221.159
217.319
220.929
223.038
223.027
221.626
220.99
224.65
222.819
221.393
220.783
221.726
220.216
221.865
221.54
225.316
221.489
221.259
233.525
216.353
222.457
229.824
219.222
225.471
220.07
224.897
220.351
229.793
227.112
221.78
219.73
223.567
220.408
231.424
221.389
220.956
220.749
220.975
219.734
219.74
223.261
219.791
226.228
227.143
224.411
218.605
220.972
218.045
231.429
219.888
220.458
217.318
229.135
221.234
220.808
224.294
221.287
221.383
220.284
218.281
224.373
226.69
218.233
224.1
220.427
222.071
223.574
230.184
214.115
220.128
220.149
221.84
224.982
223.032
221.307
224.619
221.505
220.846
217.171
218.375
217.873
221.107
218.321
221.392
220.918
218.553
221.357
219.985
223.097
219.842
220.983
222.542
219.828
224.947
219.775
220.854
233.702
221.083
220.387
227.76
225.886
221.345
228.922
234.173
220.744
221.67
218.888
221.792
217.557
224.164
233.768
219.886
226.774
226.905
218.902
220.091
216.1
227.651
222.087
220.245
222.965
220.84
219.142
220.843
220.247
226.84
224.815
222.555
219.125
223.8
219.321
222.897
220.115
220.728
222.483
220.357
220.791
220.045
225.387
219.996
224.432
221.007
221.768
226.77
220.489
216.702
225.756
220.817
218.434
220.284
218.137
220.602
221.562
220.862
221.406
226.012
216.622
217.016
220.063
219.441
221.402
222.284
221.087
219.612
217.454
220.244
223.215
219.776
220.639
222.555
220.48
221.361
220.208
221.889
220.812
218.314
219.878
224.867
213.713
216.969
222.848
214.282
220.514
221.457
220.891
221.46
220.633
222.726
226.998
220.881
229.164
220.691
219.565
221.696
219.021
216.679
221.838
221.291
219.905
217.659
221.851
221.358
217.659
222.409
219.357
220.258
224.964
220.045
221.319
220.556
219.389
223.739
222.234
215.744
219.436
218.635
226.439
224.009
221.208
220.396
221.224
221.583
214.984
234.09
222.61
220.031
220.567
215.796
219.986
220.823
223.873
223.569
220.462
222.101
220.702
233.098
221.615
221.14
224.224
221.877
224.23
221.634
225.718