# vtk DataFile Version 3.0
vtk output
ASCII
DATASET POLYDATA
POINTS 10000 float
-24.5399 -28.8486 6.40038
-20.03 -33.3159 11.218
-21.1814 -29.8918 8.68893
-22.2152 -36.7482 14.5376
-18.5837 -33.6222 10.9535
-22.1669 -34.9991 13.5449
-22.2605 -27.9419 7.07084
-14.8065 -32.478 10.8828
-17.5024 -30.4294 10.0845
-21.749 -29.4282 8.13533
-22.4028 -29.4502 7.06664
-21.8987 -30.2624 8.17364
-22.2041 -36.9854 13.9985
-20.0824 -36.4681 11.4307
-20.5833 -37.2283 13.2115
-18.5345 -33.6578 9.71798
-23.1228 -32.4192 7.35751
-21.281 -35.7907 13.2336
-17.9995 -32.8469 10.327
-15.8277 -32.6732 11.5977
-23.5434 -35.9043 6.97908
-21.5433 -36.6676 14.0704
-19.129 -33.1874 11.6951
-26.0663 -29.0969 6.18067
-21.9656 -30.1357 8.78899
-24.2417 -29.3465 5.76601
-23.63 -31.9406 6.87447
-23.287 -37.1021 14.7172
-23.2393 -29.3956 7.52511
-18.9031 -33.3021 11.8324
-25.474 -31.649 6.24805
-15.9976 -28.3612 10.2092
-22.3003 -29.1398 6.95506
-24.0346 -29.2263 7.21692
-18.6114 -32.7374 9.21735
-20.088 -33.41 11.8936
-20.5407 -30.2673 8.15308
-19.6317 -34.9992 11.0306
-18.5095 -33.3465 10.026
-20.411 -33.7238 12.273
-22.8108 -33.3353 6.90228
-23.2991 -31.6237 6.98063
-19.3509 -33.5658 11.1294
-19.8944 -32.4936 9.80696
-19.0511 -31.8547 10.5023
-20.1916 -30.9837 9.35172
-21.045 -29.9793 8.16628
-20.7248 -31.5741 9.39064
-17.1281 -33.9071 10.597
-24.3983 -31.9198 6.45127
-17.7505 -33.0078 11.7463
-22.2518 -32.1722 9.00598
-22.4703 -30.1069 8.14628
-23.9151 -31.6375 7.00393
-21.3992 -34.7269 12.3688
-23.185 -31.6922 7.60505
-21.1754 -37.7269 13.3219
-24.6381 -28.4358 5.95453
-21.7557 -31.285 8.60771
-17.3062 -32.9098 10.3666
-21.9244 -30.2263 8.79441
-21.3687 -30.441 8.73636
-24.0141 -27.1005 6.46847
-20.2544 -30.2528 9.32533
-22.4512 -29.1294 7.36515
-24.3272 -28.9388 6.94318
-23.3537 -36.1757 15.1794
-20.6444 -29.6241 8.39426
-28.2907 -38.3215 17.8543
-22.5531 -37.1368 14.3018
-21.1828 -37.6502 12.9103
-22.9151 -29.454 6.4141
-20.4936 -34.8427 11.9409
-22.3981 -29.3253 7.25969
-22.4205 -36.3333 13.8174
-21.9152 -36.2749 7.21438
-18.0801 -32.6769 10.587
-25.3677 -31.1152 6.02473
-18.717 -31.3996 10.8152
-23.9869 -34.0622 6.83079
-24.4949 -31.8365 6.30656
-23.5569 -33.8504 6.54872
-22.4659 -31.0551 8.35698
-21.0054 -35.5948 12.1585
-18.0129 -32.0929 9.74582
-21.246 -35.2496 13.0486
-22.2099 -30.8972 8.80852
-20.7413 -31.6804 8.80715
-23.0679 -31.4014 6.99431
-21.612 -37.9305 13.666
-24.9041 -32.3687 6.5604
-22.3211 -28.6777 7.48517
-19.1051 -31.952 10.8861
-29.9903 -39.1146 19.1093
-23.6052 -30.3032 7.67732
-22.1005 -29.5764 8.0506
-25.3926 -31.9777 5.74848
-21.4178 -35.7233 7.79633
-18.7081 -32.2302 9.15306
-26.0801 -30.1419 5.87668
-22.4101 -30.4713 7.59985
-23.0494 -29.6563 7.35032
-25.7222 -30.7305 6.76138
-18.7627 -32.0835 10.1192
-23.1344 -31.2532 7.52956
-22.9365 -32.1511 7.66985
-20.4504 -34.9387 12.5193
-19.0741 -31.4135 8.99734
-19.1123 -33.6116 11.5908
-17.6619 -31.2912 11.4429
-21.5919 -31.5994 8.27053
-16.391 -33.4241 11.4693
-17.02 -35.0648 11.8151
-19.0932 -34.0689 11.257
-21.6121 -30.4321 8.73852
-18.5534 -33.1493 9.97753
-23.0168 -33.6161 6.85075
-20.4038 -28.3891 8.48907
-23.8062 -28.4318 6.23437
-21.3807 -30.2574 8.12567
-20.8474 -35.0002 13.0609
-23.8852 -38.1354 15.1729
-21.3605 -31.7403 8.76119
-16.7896 -34.3816 11.4049
-22.645 -29.8943 7.84159
-23.4813 -33.1898 7.09055
-18.8508 -33.8668 10.1265
-22.1528 -35.3985 13.4062
-24.5282 -29.8099 7.67996
-22.3424 -29.837 8.28386
-19.0173 -31.0266 9.07233
-22.5471 -35.0086 7.31596
-24.0492 -29.8626 6.92528
-18.5042 -33.1164 11.0858
-19.4227 -31.3916 9.66528
-22.1012 -34.5619 7.45575
-22.5169 -32.9522 9.30768
-17.8788 -33.3833 10.2776
-18.5589 -33.5895 10.8003
-21.7526 -28.5453 7.31414
-19.9332 -30.5239 9.77572
-23.7315 -34.1797 6.98704
-19.614 -33.1243 12.2074
-24.3031 -39.1315 16.4918
-21.6695 -30.1553 8.65614
-21.8627 -37.1317 13.9487
-23.1013 -27.8982 7.13492
-23.8488 -29.933 6.87819
-25.4812 -29.9658 5.86628
-23.0925 -29.191 6.66679
-18.766 -32.9726 11.8472
-24.2216 -34.8566 6.80562
-24.795 -36.1929 5.92404
-23.3403 -36.4743 14.7977
-15.481 -35.4614 11.0187
-19.6556 -28.6019 8.80933
-24.9095 -31.1921 6.27614
-19.3082 -29.0498 8.92031
-20.5274 -30.4125 9.47503
-17.8033 -34.2945 10.4171
-24.36 -29.3906 6.65977
-18.2249 -33.5089 11.2648
-22.8155 -35.395 7.17483
-19.8435 -33.3662 11.1842
-21.6972 -37.39 13.854
-22.6972 -37.4403 14.4099
-23.006 -28.1888 6.70244
-24.611 -29.2313 6.68133
-21.1527 -32.2781 9.73924
-22.8758 -29.9043 7.11794
-22.3137 -29.6302 8.12969
-21.1518 -35.5412 8.17633
-23.4685 -37.9442 15.0883
-24.8988 -39.5422 16.1036
-21.3479 -34.5351 9.8765
-19.5157 -34.1318 11.0578
-22.4313 -32.3553 7.85571
-21.9945 -31.2256 7.92456
-21.1905 -29.0111 7.87284
-23.4151 -29.9109 7.32968
-20.4867 -29.9667 8.78311
-21.7649 -28.4916 7.18837
-22.0331 -27.5398 7.38673
-23.7299 -29.6207 7.39587
-21.5649 -29.7366 8.47411
-18.408 -32.548 11.1021
-21.3446 -28.9429 8.05855
-17.9764 -34.2542 10.3853
-19.7099 -34.352 11.9759
-20.3837 -29.1866 8.71179
-20.2758 -31.688 8.74004
-17.0174 -29.8735 9.8406
-21.2134 -32.7391 9.40388
-18.587 -35.1185 11.017
-24.0173 -39.2695 15.8298
-21.1936 -29.5066 8.13924
-21.5595 -42.5822 6.88986
-21.5635 -37.111 13.5481
-20.9811 -33.3481 11.479
-22.0111 -28.9287 8.0894
-22.1623 -28.5744 7.24362
-20.66 -35.1695 11.8106
-24.2722 -31.6802 7.05207
-22.669 -37.4774 7.03505
-17.1298 -33.0165 11.4749
-15.3576 -34.275 11.1667
-22.1621 -27.9137 6.77605
-21.6245 -27.8021 7.27086
-22.1567 -27.9852 7.13722
-25.0447 -38.308 15.7841
-25.5675 -28.5548 5.42678
-23.7523 -34.1582 6.61295
-23.9311 -29.786 7.29251
-22.1847 -31.6403 8.15783
-24.3664 -30.7576 7.26044
-23.3004 -30.7083 6.93773
-20.0268 -28.9841 8.0047
-21.3874 -32.1186 8.95844
-19.8942 -33.7695 10.8713
-23.624 -32.1297 6.78189
-18.3988 -35.4515 11.0948
-18.512 -33.9201 9.61918
-22.4696 -31.426 7.49654
-20.2501 -30.9593 8.38447
-21.7599 -31.5103 8.90109
-22.5002 -27.8718 6.92178
-25.1138 -31.5161 5.88708
-23.5888 -29.453 7.60499
-22.0754 -31.9427 8.53623
-20.5276 -32.8999 9.78038
-18.7026 -33.551 12.0685
-20.5958 -29.2188 8.68094
-21.7161 -29.5999 8.20933
-21.6185 -32.9617 7.73925
-23.6729 -30.252 7.73765
-24.1454 -29.5339 6.74568
-21.1074 -30.0012 8.21
-20.8075 -37.5679 11.7263
-22.1741 -32.1442 7.88779
-23.0885 -30.6162 7.7016
-19.3032 -31.5454 9.8162
-19.6478 -33.5711 10.0758
-23.2051 -27.4475 6.96872
-16.6102 -32.9636 11.4496
-18.3815 -30.7293 9.38174
-23.0277 -37.1165 6.83331
-23.352 -30.1054 6.95513
-18.3204 -32.1498 9.49626
-26.7179 -29.1951 5.57486
-21.4259 -29.1455 8.09328
-21.3794 -30.7901 9.05095
-23.7892 -29.9023 6.11618
-20.6018 -31.7173 9.45891
-18.1439 -31.2391 10.7043
-23.6354 -33.1258 6.43369
-25.28 -32.0149 6.2358
-23.1524 -31.3579 7.97794
-21.8217 -36.4218 12.6634
-24.3281 -37.3495 15.6853
-21.715 -31.6664 7.36819
-22.4706 -32.4471 7.81208
-21.2407 -28.7094 7.95357
-22.7689 -37.1528 7.26905
-21.7444 -35.6305 13.3601
-19.7993 -30.2092 9.02412
-21.0869 -30.2786 8.52768
-25.1916 -30.7903 6.43743
-19.7477 -33.2005 11.6409
-23.2571 -34.5344 6.95166
-23.9617 -28.0168 6.80949
-26.053 -29.3572 6.48219
-20.176 -33.5942 13.0605
-22.9956 -27.8073 6.58667
-18.6581 -33.3111 12.0539
-20.1802 -32.4339 11.8742
-21.1272 -31.3126 8.11286
-23.2123 -30.9886 7.62863
-17.907 -32.4261 10.81
-25.2731 -32.4689 5.8514
-23.2867 -30.444 7.06444
-22.442 -30.9947 8.56132
-24.7396 -29.886 6.45644
-23.3273 -32.8347 7.02301
-29.1701 -38.6034 18.3546
-21.0966 -28.9128 8.282
-18.7161 -32.4442 10.1471
-22.7642 -35.7051 13.5575
-18.9283 -32.8789 10.0984
-24.1548 -28.5302 6.34446
-18.1203 -31.4257 9.79156
-21.7193 -29.3396 8.09088
-23.8557 -28.6669 6.86934
-18.0736 -34.5301 10.3505
-21.5608 -35.7051 13.3539
-21.0945 -28.7495 7.61036
-23.3869 -33.4537 7.44427
-22.1719 -30.5665 8.01711
-24.5546 -29.8164 6.10099
-21.1312 -28.2939 7.47441
-20.3569 -30.1685 9.18604
-23.1401 -38.3381 7.13637
-19.6899 -33.3122 12.5132
-17.7927 -34.1793 10.7603
-22.8955 -36.4047 14.5175
-19.1035 -33.0442 11.6863
-21.5847 -35.8028 13.4449
-15.0908 -33.0696 10.1757
-21.4787 -30.3119 8.12304
-17.5162 -33.4519 11.3834
-21.5732 -35.8444 7.77146
-24.924 -32.5444 6.24959
-21.2751 -37.6496 13.8192
-21.432 -38.0161 13.0942
-20.6891 -30.5492 10.0996
-22.8221 -29.6351 8.75349
-19.4211 -29.621 8.95528
-16.5282 -33.6846 11.4944
-19.908 -33.8316 12.1804
-24.1416 -29.8763 6.52707
-21.6572 -28.1211 8.25502
-22.0492 -30.3315 7.2195
-19.3873 -33.4995 11.452
-18.382 -34.9688 10.94
-21.8197 -37.8846 13.7742
-22.5714 -28.3122 7.15776
-22.042 -31.6 8.99255
-24.161 -31.6966 7.00077
-20.282 -28.8309 8.40171
-24.2081 -31.5069 6.26286
-26.4611 -35.995 6.05174
-26.373 -38.6699 17.2583
-22.1859 -37.8458 14.1652
-18.5187 -34.7288 10.7423
-26.0119 -29.6508 6.07892
-22.1459 -32.5318 9.0514
-21.3359 -33.3682 8.01647
-21.3809 -34.8483 12.7133
-22.098 -28.8685 7.4898
-22.4536 -34.1401 7.69472
-18.6966 -32.9144 10.9442
-22.4385 -30.6328 8.2964
-22.3164 -31.0207 7.05189
-17.7745 -32.9235 12.0648
-21.3115 -27.9921 8.23438
-21.6798 -35.5922 12.88
-21.6874 -33.6832 8.19233
-24.7347 -39.0944 15.953
-21.3962 -36.191 13.7139
-18.3092 -32.7447 12.3251
-23.0537 -29.4399 7.64874
-24.058 -27.8128 7.03076
-21.0479 -27.9047 7.9541
-23.6151 -33.6904 6.98762
-18.7077 -31.8399 9.72671
-17.9472 -34.03 11.4484
-23.3246 -29.5209 7.21726
-23.188 -27.965 6.99278
-22.4431 -30.0114 7.65149
-23.9454 -30.5596 7.92367
-23.4782 -30.6254 7.44077
-21.9066 -28.2847 7.29284
-25.5077 -34.938 26.592
-21.1347 -28.4699 7.79721
-23.0833 -36.7994 15.3243
-20.7296 -37.386 7.14999
-24.1773 -28.5252 6.5745
-22.6073 -38.091 15.0172
-21.0298 -31.8191 9.39412
-23.0867 -29.6968 7.00558
-21.1508 -38.0846 13.9051
-18.6897 -28.967 9.07965
-19.1092 -33.5391 12.0251
-24.4265 -28.6659 6.63686
-18.3567 -34.1204 10.7734
-22.1959 -33.0349 7.73431
-26.3915 -38.7971 17.5551
-21.5371 -29.2604 7.40101
-20.9562 -37.3045 11.8542
-23.0378 -37.0988 14.8412
-17.8895 -34.2366 12.2779
-16.6387 -34.0858 10.7284
-23.5342 -29.1542 6.95981
-22.883 -38.7577 14.6957
-22.083 -29.6378 6.99469
-28.8436 -38.2408 18.2434
-21.9955 -36.0011 14.1869
[...]
POINT_DATA 10000
SCALARS t float 1
LOOKUP_TABLE default
242.411
220.824
226.029
218.224
218.808
219.166
238.341
214.645
219.985
229.53
236.686
228.468
218.646
220.155
219.591
220.605
232.858
219.547
218.955
216.491
234.231
218.878
220.163
244.377
225.307
246.758
236.654
217.74
233.557
220.025
241.993
219.506
237.83
235.981
222.915
220.949
228.667
219.882
219.822
220.581
235.795
235.995
219.911
221.169
219.907
222.931
228.709
222.411
217.43
239.966
218.846
223.081
228.674
235.828
220.261
231.41
219.255
246.201
225.557
218.318
225.235
225.424
243.708
223.369
234.952
238.312
217.008
227.846
213.661
218.328
219.509
241.53
220.841
235.461
218.738
232.362
218.621
243.939
219.434
236.069
241.149
238.291
226.94
220.373
220.967
219.766
224.743
224.546
235.986
218.883
238.963
234.657
219.763
213.634
231.568
229.866
245.789
228.454
223.373
245.898
232.054
234.446
238.451
220.202
232.158
230.746
220.478
224.3
220.082
218.324
227.26
216.814
218.402
219.665
225.395
220.033
236.061
228.671
244.001
228.786
219.917
217.06
224.6
217.1
230.771
234.475
219.607
219.202
231.956
228.157
224.123
232.017
237.311
218.896
221.835
231.23
221.343
218.845
218.794
235.92
222.146
234.821
220.5
215.149
225.948
218.775
238.08
237.568
245.748
239.927
219.899
235.931
242.542
217.615
215.011
226.898
241.698
226.034
222.846
218.276
239.853
218.65
232.917
220.604
218.843
218.17
240.744
239.893
221.059
235.81
229.312
226.038
217.218
215.787
219.409
219.939
229.403
229.538
231.617
234.284
225.548
236.85
236.62
234.187
227.261
218.867
230.563
218.466
220.786
226.699
224.928
220.907
221.59
218.597
216.075
229.41
232.255
219.081
220.532
230.434
236.422
220.682
235.452
233.284
217.692
214.991
240.407
237.033
237.82
216.181
250.392
237.684
234.719
227.831
234.328
236.72
230.764
223.523
220.271
237.268
218.367
220.851
232.336
227.081
224.045
239.487
244.734
232.947
225.509
220.857
219.998
226.822
228.893
230.002
231.178
239.033
228.433
219.648
229.319
231.263
221.37
220.185
239.761
217.036
222.963
234.919
236.861
221.978
249.318
230.117
223.887
243.468
222.187
218.87
239.509
241.839
229.029
219.657
216.197
233.161
229.652
231.47
231.667
219.336
224.495
226.568
240.695
220.798
234.917
240.305
241.786
219.845
241.972
219.941
220.879
228.387
231.583
218.285
244.717
235.898
225.867
240.88
235.138
213.312
229.282
219.99
218.845
220.054
243.121
221.062
229.908
239.115
218.511
219.391
233.614
231.725
229.259
243.742
235.031
223.863
232.27
220.313
217.868
218.064
220.132
219.318
217.512
228.77
217.961
228.559
241.355
218.971
219.262
221.551
225.958
225.327
217.027
220.753
240.306
230.426
234.81
220.267
218.336
218.768
237.363
223.544
235.832
228.657
241.602
242.374
214.526
218.453
218.503
244.631
222.68
228.009
220.01
234.377
229.669
219.071
227.525
235.715
219.304
230.646
219.703
226.668
215.963
219.187
219.765
232.65
239.042
232.368
235.031
221.301
218.56
235.572
238.992
231.913
229.758
233.079
236.381
217.976
232.714
216.792
232.44
241.431
217.413
222.198
236.879
218.911
225.431
220.274
240.847
218.468
229.94
214.266
234.494
219.789
217.614
219.763
216.716
237.872
217.821
236.982
213.302
218.711
216.363
234.058
224.108
235.755
220.861
209.922
228.624
231.054
221.939
218.136
218.246
231.795
220.648
219.412
220.077
227.954
233.677
229.661
245.605
215.762
231.276
236.096
223.032
214.308
224.573
221.189
246.586
220.459
229.295
233.319
221.908
231.769
219.945
239.499
236.545
224.904
238.045
217.528
245.132
228.449
235.325
235.579
246.779
217.317
234.396
239.895
228.215
230.78
222.686
237.322
233.036
234.629
217.569
237.85
219.696
233.788
236.817
222.389
217.119
228.72
236.072
221.42
239.486
223.219
233.063
228.042
220.431
237.265
242.698
222.187
230.293
215.867
219.574
218.752
228.832
240.526
220.64
241.092
246.255
242.477
222.54
219.047
218.609
218.537
230.504
223.948
226.443
225.298
230.117
233.928
225.05
222.896
234.788
240.69
216.925
225.468
220.284
228.305
218.073
239.894
234.547
224.224
219.465
231.721
232.321
230.362
235.413
217.786
232.686
220.037
220.21
235.082
234.915
242.148
239.987
220.583
230.272
237.1
220.295
222.652
222.192
218.246
240.074
219.233
220.936
237.844
222.896
238.555
240.612
236.798
221.084
231.12
218.357
215.358
218.288
237.817
244.654
218.471
236.073
218.972
219.331
219.89
240.422
227.474
219.802
226.754
236.516
236.238
220.049
217.852
240.77
215.822
233.925
217.478
236.761
234.648
221.369
233.583
242.152
218.179
230.59
228.633
237.956
226.212
241.608
244.119
240.402
213.186
236.261
231.004
219.127
237.073
215.298
220.85
221.438
217.938
221.767
219.732
220.594
238.898
224.815
237.598
218.264
226.686
234.363
238.368
228.674
231.328
220.294
219.925
215.548
224.409
227.543
217.056
237.022
219.394
219.362
228.652
219.211
239.638
236.551
227.07
234.588
234.331
245.4
219.302
220.899
219.473
239.431
228.463
221.062
250.182
234.383
218.174
235.157
225.411
220.414
235.055
221.481
239.59
227.866
234.413
219.675
222.194
220.55
219.741
220.53
227.005
227.455
217.551
220.483
226.525
220.388
223.656
230.21
220.781
222.629
234.446
219.792
220.622
230.938
218.536
237.113
244.815
233.045
234.051
224.036
221.65
219.211
239.907
226.22
229.606
219.83
230.219
220.293
225.137
221.198
219.598
234.168
231.95
229.324
216.99
215.492
218.656
217.097
218.975
240.399
230.951
242.093
239.724
240.556
250.761
227.969
233.256
218.77
241.699
238.844
229.031
224.046
223.733
239.603
225.275
216.467
220.654
232.686
214.615
235.562
232.014
216.974
219.692
219.19
217.245
220.093
219.37
217.607
217.338
241.635
217.913
231.534
239.805
220.014
218.823
233.32
242.043
219.881
224.86
220.501
237.221
223.317
227.117
228.732
230.457
227.89
233.965
230.843
217.992
231.19
231.458
218.936
245.276
219.414
220.066
219.922
237.018
244.009
218.057
240.318
216.242
233.634
239.036
221.009
225.601
219.515
222.231
236.093
219.422
219.534
217.665
229.673
231.756
240.917
219.077
220.111
236.29
226.133
225.639
220.827
235.804
238.876
227.476
221.353
238.875
216.364
227.27
231.582
239.817
238.409
237.911
238.293
224.181
227.872
229.607
220.233
213.351
227.929
218.688
220.835
224.684
217.365
240.862
233.984
234.308
223.032
224.784
240.065
232.721
237.457
230.423
232.717
236.274
241.831
237.99
226.697
236.072
232.715
225.022
219.6
220.412
235.728
218.396
240.746
237.724
220.015
232.596
239.989
221.362
233.526
220.013
225.841
231.818
237.119
235.976
222.682
225.078
227.254
237.883
235.395
222.935
223.329
232.96
224.901
242.068
243.25
225.854
218.593
243.658
222.487
213.516
219.241
226.206
233.688
229.467
223.068
217.946
232.503
220.343
228.604
219.949
218.876
240.086
235.947
246.118
245.444
236.6
251.127
218.314
233.702
231.784
243.427
233.466
220.563
236.834
225.808
217.875
231.783
219.408
226.423
220.387
247.424
235.093
217.48
225.684
222.751
219.779
236.392
220.48
241.933
230.113
233.763
222.04
231.684
246.932
222.466
219.932
219.714
230.961
236.814
240.804
223.299
220.044
223.966
219.913
233.514
230.606
231.577
237.88
220.202
216.482
226.327
218.988
232.897
230.544
222.424
246.712
223.351
213.415
220.028
217.222
237.725
230.789
223.188
219.444
216.913
235.324
219.158
226.95
245.612
222.665
219.039
241.204
220.527
233.653
217.609
219.218
240.054
238.061
213.461
221.189
239.631
235.196
214.104
234.377
238.956
228.783
228.622
222.73
220.811
229.383
220.43
224.557
220.443
229.009
220.803
220.077
219.895
226.539
222.555
225.573
217.072
242.018
237.141
219.208
216.985
221.189
224.313
219.451
227.561
234.921
217.503
224.292
226.83
226.654
218.854
219.89
232.138
233.946
218.909
243.164
219.494
237.051
218.752
235.517
230.595
236.784
218.515
241.493
219.089
224.999
230.737
238.809
239.008
217.763
218.918
225.593
220.337
224.129
234.383
232.971
242.661
237.948
221.425
234.763
214.356
220.857
230.504
235.421
216.618
234.971
247.536
237.744
222.342
219.417
218.09
219.045
246.855
217.799
236.738
217.015
233.846
247.369
228.203
220.689
232.653
218.875
215.979
219.817
228.6
220.263
214.236
220.249
224.077
220.467
235.437
220.261
219.995
220.761
243.295
237.89
219.182
230.724
230.893
221.36
220.718
230.209
219.382
218.123
219.264
220.593
238.586
228.458
235.406
237.644
219.453
234.75
220.06
228.8
235.189
241.229
233.672
220.205
217.667
219.59
239.089
242.694
233.29
234.051
219.654
222.97
226.154
220.36
228.298
219.216
218.578
222.693
231.961
218.985
228.771
223.589
238.723
248.129
218.732
216.577
234.806
239.198
227.471
244.974
240.413
236.772
233.214
241.484
232.502
225.72
241.701
221.817
219.721
234.818
241.008
230.524
244.591
245.382
238.455
227.507
237.773
221.212
221.922
222.371
241.347
233.808
219.315
223.451
218.412
231.689
220.11
235.465
242.123
217.283
232.183
230.291
218.475
217.876
245.216
232.111
242.891
216.624
223.271
226.438
236.664
229.192
244.082
230.619
221.589
233.989
220.355
225.175
234.635
242.708
220.513
246.364
239.385
220.759
235.642
238.964
220.208
219.47
226.12
221.023
238.515
219.573
238.622
219.978
239.509
249.806
235.191
241.602
218.333
223.552
242.574
239.348
223.019
217.99
239.144
218.326
234.286
220.488
228.911
228.938
236.263
213.924
237.769
222.825
238.983
218.453
220.867
219.599
221.076
236.28
220.399
218.961
217.251
231.673
228.632
237.059
225.281
227.104
237.457
220.075
221.581
218.837
238.902
228.089
219.88
235.102
226.972
220.107
227.685
220.541
230.312
219.05
226.703
215.014
228.039
227.469
218.56
218.846
234.903
227.955
229.414
230.56
244.495
230.697
232.573
218.422
235.776
217.378
236.434
231.394
230.299
231.919
231.499
231.18
244.358
231.667
240.086
235.252
237.383
219.411
219.894
216.61
219.414
235.648
221.004
239.06
241.535
225.45
216.917
229.792
236.992
219.171
216.743
219.205
235.8
223.732
235.24
222.196
222.931
220.306
234.043
227.842
238.36
220.466
235.91
238.433
217.196
231.218
233.057
235.517
233.554
218.25
237.763
233.555
226.565
219.538
220.966
227.12
235.206
219.865
232.823
214.433
219.183
237.98
220.698
227.023
232.488
247.961
224.827
220.784
230.37
236.848
237.363
218.857
220.629
230.373
250.179
214.41
215.351
236.301
240.514
223.629
236.808
224.434
230.284
223.265
239.321
230.301
237.642
220.828
226.116
231.464
218.478
219.809
237.646
238.742
220.474
218.982
218.739
220.08
244.927
237.536
219.576
222.911
219.949
225.557
221.251
217.483
220.353
244.093
222.105
234.247
218.137
220.013
241.334
219.725
228.566
217.481
218.258
221.74
236.485
232.042
214.144
227.529
218.369
220.304
217.008
237.654
227.794
218.957
218.929
232.225
239.571
219.525
228.631
235.664
220.147
220.803
234.402
234.785
229.732
244.109
224.494
230.781
219.384
234.418
239.739
245.034
217.829
220.123
243.203
216.187
230.394
224.057
216.126
216.61
213.867
242.298
218.51
234.026
219.263
225.818
237.109
234.352
246.563
249.659
222.309
218.244
225.015
220.396
228.811
233.671
231.295
238.931
218.551
233.882
217.79
229.953
229.683
225.112
226.713
219.713
221.486
238.653
226.934
216.795
220.161
222.528
218.284
227.478
217.015
240.749
220.128
224.824
236.161
229.057
219.738
224.942
237.452
242.533
237.836
217.735
236.502
218.302
236.111
219.429
234.508
223.659
228.043
217.409
219.019
224.009
222.79
228.636
228.618
220.235
215.189
226.213
222.45
230.536
222.592
218.614
218.863
228.937
227.762
238.615
223.623
232.111
231.228
228.623
232.448
235.379
228.036
239.541
230.286
239.472
219.733
238.056
228.438
233.637
225.803
239.067
237.775
220.383
225.351
238.57
232.071
231.936
222.208
236.718
234.948
218.234
236.15
221.045
237.005
239.112
240.942
219.056
215.303
217.173
235.541
219.049
227.168
217.991
221.989
219.322
219.361
247.273
225.195
219.333
219.415
218.916
225.387
240.976
234.82
218.706
216.299
224.483
226.559
231.794
232.081
221.965
220.023
218.111
229.711
216.965
234.361
234.574
228.095
220.596
218.97
241.133
249.101
219.817
219.719
244.459
220.467
238.274
222.8
246.784
237.817
219.952
228.974
244.304
235.168
219.672
235.362
219.187
230.556
237.11
227.355
219.119
221.423
232.889
217.623
237.527
235.88
220.88
242.859
228.921
215.049
219.698
217.187
224.954
221.875
231.186
219.441
233.875
229.744
230.378
220.227
233.604
219.452
227.395
219.547
248.585
227.139
220.541
219.121
219.274
242.49
242.637
218.923
220.249
233.325
233.266
237.989
222.241
220.775
226.042
225.604
237.666
239.36
220.41
219.621
218.656
234.162
222.721
246.441
220.352
243.454
230.577
229.034
227.961
235.082
222.758
243.026
213.578
232.907
230.845
218.778
226.346
229.714
243.562
231.504
244.134
236.363
228.066
218.438
220.3
240.673
241.571
224.297
238.203
214.118
227.162
238.211
218.656
237.056
230.358
235.456
229.909
218.432
226.629
240.389
239.348
220.531
226.311
220.905
219.265
227.074
219.343
235.271
225.694
220.247
243.174
231.148
220.193
237.68
218.089
233.999
235.151
217.366
240.376
234.334
222.462
219.765
224.29
216.683
232.853
235.545
219.406
239.428
218.184
243.689
220.206
220.549
240.932
237.884
220.869
231.979
230.499
219.327
250.092
233.583
217.669
234.8
224.916
219.323
225.474
229.723
216.604
226.009
219.933
229.642
240.017
226.935
248.198
230.201
238.394
225.813
238.9
233.049
213.502
236.285
230.867
228.996
236.061
224.225
221.803
243.951
232.228
234.663
220.688
236.671
239.558
234.717
236.213
231.594
218.635
217.592
219.225
219.023
225.25
229.698
228.318
219.125
219.297
219.138
231.92
231.13
223.33
230.295
219.198
232.46
227.583
228.053
219.144
229.602
229.968
229.168
231.832
232.203
235.331
219.806
216.639
224.512
224.172
219.838
238.574
227.501
219.734
226.476
240.557
238.526
230.226
217.94
228.441
234.507
228.607
247.956
225.035
220.188
217.687
243.333
218.909
214.588
226.281
239.459
239.256
239.427
230.271
227.068
220.457
227.319
230.491
226.068
238.596
235.297
236.842
242.821
228.817
219.114
223.56
227.834
223.845
245.9
233.024
218.653
238.519
238.625
241.911
219.952
218.889
224.758
222.479
217.879
234.257
222.502
238.576
214.887
220.195
224.904
218.358
215.456
234.873
234.25
237.899
232.968
222.737
242.25
218.235
226.16
224.061
244.124
219.358
243.056
231.542
236.342
230.095
233.681
222.499
228.01
227.245
227.068
227.978
222.055
233.845
220.37
220.564
234.932
241.645
232.286
220.663
225.494
218.79
236.638
239.766
232.692
226.438
233.612
221.426
229.823
219.379
220.384
227.632
219.982
226.17
234.136
217.616
224.659
215.574
229.396
220.158
227.426
219.844
226.46
243.244
215.209
213.764
242.512
220.705
220.291
236.561
231.813
248.197
240.486
222.118
237.432
219.656
237.327
225.901
231.005
223.788
221.66
233.855
223.433
241.662
220.671
220.541
244.167
234.875
230.536
219.178
217.969
218.725
218.261
235.031
235.489
229.082
238.354
231.393
220.681
218.997
234.272
233.629
219.438
240.619
228.597
218.323
234.387
220.843
220.201
237.56
230.971
242.641
222.398
236.358
225.852
226.178
232.303
231.499
234.108
239.6
232.922
241.597
220.086
219.524
231.701
236.97
237.664
226.959
239.15
215.207
217.144
231.141
233.577
227.611
224.399
233.734
221.023
220.553
224.88
220.148
234.375
217.325
229.153
230.132
219.887
216.716
219.586
227.551
222.011
219.31
231.253
228.695
240.631
217.527
233.931
239.16
225.658
217.993
219.932
222.896
241.499
231.018
226.852
239.618
228.562
238.445
230.586
231.248
227.714
228.751
233.485
236.331
216.001
218.74
225.129
220.856
220.713
215.822
223.177
225.282
236.709
235.281
233.164
227.571
217.446
245.164
225.5
230.236
221.245
233.933
217.591
228.806
223.919
220.452
228.793
220.341
241.351
216.505
219.683
226.753
237.179
219.949
245.172
218.506
228.643
217.629
227.411
240.911
235.768
237.944
226.419
226.793
230.409
219.156
216.175
232.431
236.517
233.574
227.886
237.181
228.671
233.657
238.216
222.638
238.138
226.879
240.02
229.02
216.026
229.837
237.501
222.777
220.249
224.482
228.1
234.732
227.246
224.475
244.489
242.313
237.989
220.468
228.432
234.836
239.901
212.626
236.958
222.243
237.931
243.833
238.885
232.419
213.617
218.874
234.498
217.932
238.592
236.385
238.545
219.403
229.455
217.153
216.083
239.253
240.259
230.415
237.424
217.328
242.049
225.785
230.775
222.411
226.548
220.027
224.904
227.868
219.435
237.452
219.399
233.921
218.645
218.463
231.298
218.668
239.662
218.397
235.622
251.214
236.687
235.233
249.64
224.286
235.201
219.32
228.529
229.457
227.464
220.456
219.801
228.947
229.633
237.305
240.212
228.695
229.144
218.998
218.387
245.871
216.773
225.247
239.046
220.384
221.336
232.283
223.161
244.096
238.048
233.059
220.855
239.196
228.833
226.959
231.163
232.071
222.266
233.219
222.731
215.53
213.285
228.455
235.282
216.335
220.186
220.945
234.857
222.426
244.63
232.092
234.776
220.644
233.584
230.945
225.878
239.525
224.576
220.213
238.111
219.009
225.125
237.312
228.872
223.362
215.574
220.408
239.605
228.212
232.863
219.562
218.682
238.034
221.549
237.895
221.839
237.859
220.892
225.517
238.938
224.499
246.533
235.531
230.515
218.226
223.561
247.763
237.474
213.368
232.539
223.035
235.115
218.553
234.311
219.38
229.549
237.002
235.552
223.046
217.203
215.175
220.518
236.954
220.546
228.92
239.626
217.407
223.706
224.429
245.109
218.835
219.778
229.715
240.236
234.324
235.123
235.789
219.216
236.381
225.008
228.011
222.696
219.528
243.687
219.985
219.892
234.96
230.762
222.501
233.25
226.137
217.605
223.487
218.98
229.728
217.475
219.343
244.956
234.134
233.037
243.705
222.669
232.15
220.083
219.763
222.139
218.318
222.089
237.471
232.173
239.12
219.433
223.825
224.358
223.257
238.089
221.887
220.287
227.881
218.005
227.151
241.057
222.034
219.896
235.564
218.28
235.854
235.743
221.082
218.229
236.499
223.818
235.157
221.718
235.093
241.027
226.802
236.163
226.668
229.798
234.867
218.645
240.41
231.69
213.966
239.407
243.741
235.312
236.729
220.811
234.269
219.961
221.237
220.103
226.64
243.242
221.942
220.06
241.118
238.457
226.763
242.007
218.769
238.396
220.814
227.612
226.572
240.228
241.434
229.819
214.406
230.452
235.482
216.955
226.183
220.435
232.525
224.815
229.052
233.6
232.086
227.658
245.029
230.294
217.016
218.484
223.242
239.113
221.201
227.129
231.365
240.583
236.498
219.443
231.886
220.936
219.861
229.353
242.216
229.914
231.559
234.947
229.449
225.099
218.1
235.068
243.622
225.333
236.311
219.039
219.732
225.329
234.564
214.053
232.504
218.548
242.639
235.953
219.262
233.509
240.384
223.081
219.268
217.991
219.28
222.979
229.286
242.228
229.152
220.45
231.953
236.077
230.213
237.689
226.892
220.116
243.101
214.219
227.54
233.574
219.204
239.207
234.345
213.924
223.118
243.951
229.111
219.543
219.406
225.54
232.555
229.332
235.156
234.578
218.714
221.109
235.168
232.385
218.882
224.313
216.92
219.618
218.444
215.744
241.608
232.974
224.162
243.456
225.281
233.376
239.212
219.154
237.374
222.836
233.412
228.198
245.143
239.799
217.293
226.233
234.517
221.88
236.387
219.082
234.217
228.941
218.882
226.308
223.083
231.294
220.43
236.784
238.056
233.072
218.636
232.932
234.843
243.945
219.049
223.086
228.044
248.029
220.632
232.548
238.649
221.301
218.897
219.7
221.673
235.958
242.255
217.715
234.559
220.903
235.566
236.477
238.518
213.182
227.765
219.753
230.556
240.628
227.366
223.858
237.085
230.264
231.187
230.184
232.144
219.353
220.076
218.274
218.085
233.08
234.684
220.392
222.693
236.917
231.387
220.385
235.082
220.225
238.721
220.359
228.154
245.86
238.336
219.788
238.49
236.355
222.073
239.143
244.287
217.054
220.161
219.704
231.821
217.803
236.889
244.063
218.983
238.039
237.384
219.544
222.713
223.917
243.123
229.118
230.912
228.816
222.818
218.558
233.428
221.755
236.809
236.55
229.267
218.754
235.998
220.023
235.445
232.958
220.31
238.486
219.505
220.202
229.965
232.592
218.809
232.817
224.858
219.686
240.112
224.601
223.376
242.991
219.63
233.112
221.746
218.025
225.011
221.138
217.592
219.711
237.048
215.736
223.381
220.999
220.885
233.687
236.157
220.44
218.958
216.971
222.194
234.001
230.166
222.339
229.104
219.784
219.297
219.256
231.943
220.22
236.609
225.207
237.46
213.096
220.394
236.269
213.215
219.521
235.838
219.945
217.579
232.443
237.098
234.241
225.97
240.559
219.431
234.55
220.49
217.899
229.251
217.851
219.965
220.736
226.128
230.734
218.553
222.083
224.38
233.549
219.473
236.801
220.593
226.377
218.155
227.1
232.464
235.378
217.129
230.955
229.621
241.409
232.753
222.246
229.601
229.641
218.475
226.494
246.584
234.882
223.231
220.137
224.135
223.642
222.802
234.175
241.467
233.653
233.435
224.042
242.53
218.663
220.802
237.797
230.856