# vtk DataFile Version 3.0
vtk output
ASCII
DATASET POLYDATA
POINTS 10000 float
-46.9711 -44.3913 8.63949
-43.5197 -39.0915 12.6978
-43.0184 -42.214 11.0373
-46.1471 -39.0711 14.731
-43.028 -41.0462 11.8455
-45.5557 -39.046 14.1755
-45.0704 -43.6386 10.0181
-42.9866 -40.7413 11.6678
-42.3968 -40.2814 11.618
-43.9504 -43.3796 10.3808
-47.9806 -44.6575 9.75198
-44.4604 -43.9736 10.327
-46.0304 -39.5046 14.6177
-44.1169 -39.7057 12.5949
-44.2768 -38.586 13.3331
-42.8811 -40.8266 11.8939
-47.4009 -44.4022 9.21008
-45.1544 -39.1802 14.1274
-42.8043 -40.4671 11.9419
-43.0156 -38.9023 12.2729
-52.7927 -44.603 7.65946
-45.5418 -39.2248 14.334
-44.1584 -39.4927 12.9029
-50.6077 -45.1231 8.65318
-44.1751 -43.6994 10.5737
-46.5565 -44.2519 8.93218
-49.8841 -44.9677 8.72917
-46.9843 -39.6194 15.333
-44.0297 -43.4444 10.0912
-42.9306 -38.8145 12.5818
-49.944 -44.1103 7.98171
-41.9615 -39.3399 11.4417
-45.8146 -44.2315 9.85545
-46.8311 -44.9435 9.88948
-43.1695 -40.6994 11.606
-43.9477 -39.6619 13.0449
-44.1684 -43.3309 10.6331
-42.9082 -39.5017 12.1026
-43.7962 -40.7501 11.8675
-43.3286 -39.4827 13.1452
-48.8929 -44.5544 8.4142
-49.1366 -44.6558 8.79032
-42.7917 -39.6259 12.3916
-43.5106 -40.8396 12.1481
-43.3521 -41.2581 11.5785
-42.9761 -40.6647 11.4862
-43.2841 -41.9623 11.48
-42.7022 -41.0818 11.2411
-42.4384 -38.9452 12.1159
-51.6981 -44.7459 7.84397
-43.492 -39.7693 12.9252
-45.6901 -44.2816 10.6042
-45.9452 -44.1228 10.4567
-46.9083 -44.5381 9.03883
-43.7924 -39.3596 12.754
-48.675 -44.6541 9.7854
-44.6351 -39.2204 13.8435
-45.6547 -44.231 8.63645
-47.4728 -44.3412 10.1829
-42.9745 -40.3557 11.9076
-43.6235 -43.1973 10.1849
-46.427 -44.2464 10.4824
-45.2053 -44.1757 9.32412
-43.0826 -41.3045 11.2908
-45.7374 -44.0851 10.479
-46.0602 -44.0304 9.36513
-47.6108 -39.9847 16.0887
-43.6747 -42.69 11.233
-51.5704 -38.8214 17.9208
-46.6316 -39.5787 14.8706
-44.4224 -39.7751 13.476
-49.8538 -44.9485 9.28328
-43.8888 -39.4235 13.3595
-48.3009 -44.8372 9.773
-46.574 -39.5519 14.9165
-50.6877 -44.3043 7.70178
-43.2386 -39.4253 12.1428
-50.4595 -44.8011 7.88054
-42.8519 -40.6013 12.1837
-53.2935 -45.1023 7.55192
-52.7592 -44.5779 8.73425
-51.6794 -44.9107 7.57059
-45.0187 -43.5596 10.9065
-44.0071 -39.5396 12.8657
-42.5426 -39.4357 11.5603
-44.5608 -39.2482 13.8053
-44.2466 -43.6637 10.6465
-42.4527 -41.632 11.1207
-50.2858 -44.6908 8.72462
-45.0947 -39.4639 14.0889
-49.8106 -44.4194 8.57894
-46.1083 -43.9234 10.1346
-42.8255 -40.0188 12.5333
-53.4016 -38.5191 18.8247
-47.4093 -44.4161 9.913
-42.9206 -41.8827 10.7553
-50.8919 -44.3686 8.03903
-49.2826 -44.2379 8.45955
-43.2175 -40.7368 11.8071
-48.216 -44.9082 8.44944
-45.8626 -44.3684 9.8687
-46.0883 -44.5057 9.84681
-47.3786 -44.5019 9.07984
-42.9278 -39.4961 12.2808
-45.6705 -44.438 9.269
-48.8185 -44.7791 9.57751
-44.2601 -39.696 13.0921
-43.0947 -40.7803 11.811
-43.8737 -39.8221 12.4422
-43.727 -40.255 12.9987
-44.2449 -43.5034 10.5661
-42.6269 -40.0274 11.9823
-43.121 -39.5286 12.6135
-43.2759 -40.4454 12.2444
-44.1068 -43.3747 10.6196
-42.6147 -41.1485 11.2548
-45.6864 -44.0004 8.77954
-42.6897 -41.4665 10.5438
-45.048 -44.0249 9.80298
-42.8379 -42.3332 10.4448
-44.2248 -38.9684 13.7726
-47.8882 -40.0054 15.5722
-43.2318 -41.7559 11.1329
-43.1257 -40.1018 11.9684
-43.827 -42.8227 10.6054
-52.5553 -44.5589 8.38294
-42.8293 -40.0795 11.7392
-45.2102 -39.3102 14.1831
-44.5941 -43.6413 10.1561
-43.6948 -42.8908 10.6823
-43.3589 -42.0402 11.3638
-51.2282 -44.6189 7.71541
-46.318 -44.191 9.79749
-43.1387 -40.4415 12.0433
-43.3503 -40.9291 11.4821
-48.2896 -44.3714 8.95214
-42.9485 -42.5316 10.6733
-42.6107 -39.5916 11.803
-42.2494 -39.3177 12.2128
-44.2516 -43.8792 9.9481
-43.4092 -41.954 11.3182
-54.1798 -44.7503 7.44093
-43.9335 -39.8397 13.0366
-48.5173 -39.3969 16.8087
-43.4533 -42.5753 11.0291
-46.2112 -39.371 14.5489
-44.5405 -43.5237 9.78754
-47.6382 -44.6593 8.63891
-45.7542 -44.4831 9.09861
-44.6977 -43.8324 9.17736
-43.5324 -39.1653 12.7222
-52.6444 -44.5585 7.46496
-55.156 -44.3489 6.85073
-47.0517 -39.4692 15.335
-42.8892 -40.7009 11.9555
-42.5067 -41.52 11.0111
-45.6012 -44.0013 8.3747
-43.1834 -42.0757 11.2809
-44.1128 -42.9999 11.0444
-42.5337 -39.8635 11.9535
-44.849 -43.8492 9.93728
-43.231 -39.878 11.8691
-50.0283 -44.4084 8.13164
-43.6626 -40.003 12.4255
-44.9126 -39.2475 14.0912
-46.6753 -39.6493 14.9262
-46.7865 -44.7491 10.0192
-45.5372 -44.1402 8.98423
-42.9942 -41.0046 11.8067
-49.2884 -44.1767 8.69426
-43.2347 -42.276 10.9328
-45.5157 -43.9358 10.3068
-47.3574 -39.8639 15.597
-48.7708 -39.3438 16.6954
-43.3617 -42.327 11.0412
-43.8779 -40.9954 12.3473
-44.3503 -43.7091 9.57217
-43.1745 -42.6289 10.9046
-42.9512 -41.9765 10.9776
-46.0334 -44.0797 9.90411
-43.1132 -41.951 10.9193
-44.0779 -42.9191 10.7329
-43.7733 -43.5493 9.96235
-44.3127 -44.1845 9.53281
-43.4396 -42.7317 10.7341
-43.4934 -39.9535 12.3426
-43.9246 -43.3676 10.9536
-42.5909 -39.6982 12.0194
-43.4933 -38.4742 13.1934
-43.6502 -42.9613 10.7831
-42.7127 -41.5466 11.0611
-42.5197 -40.4849 11.4482
-43.5073 -42.1279 11.2579
-43.1377 -39.0764 12.7182
-47.9147 -39.8199 15.8211
-43.4987 -41.8915 11.4743
-56.1558 -43.7671 6.5557
-45.3308 -39.5898 14.0269
-43.3024 -39.9095 12.6663
-45.1714 -44.0971 10.2914
-46.5319 -44.9304 10.0098
-43.6144 -40.2189 12.749
-47.1769 -44.1247 8.96773
-47.359 -43.8062 7.86316
-43.0792 -39.3944 12.7329
-43.2962 -40.8104 11.8353
-44.2765 -43.5995 9.77212
-44.6786 -44.0583 10.2317
-44.404 -43.6433 10.2487
-48.6771 -39.5258 16.2686
-46.9627 -44.5746 8.28833
-50.4366 -43.6801 7.60322
-43.7784 -43.386 10.032
-44.1647 -43.8147 10.2219
-45.9768 -44.6154 9.35075
-51.9624 -44.9567 8.96456
-42.9347 -42.1862 10.5491
-42.9612 -41.9679 11.0154
-43.6801 -41.8059 12.1146
-51.6624 -45.0006 8.55521
-43.6131 -40.2866 12.0055
-42.3929 -40.0189 11.6715
-48.9159 -44.7639 9.16366
-43.1149 -41.0127 11.6576
-43.0564 -41.6757 11.4001
-44.9221 -44.4509 9.79782
-50.1291 -44.9205 8.09957
-48.2221 -45.2226 10.0023
-43.7255 -42.972 10.545
-42.5843 -41.087 11.3594
-43.9404 -39.4619 13.2545
-43.1598 -41.9058 10.8249
-43.3154 -43.1233 10.5794
-48.7724 -44.6611 9.44669
-44.0489 -43.3369 10.2129
-44.9853 -44.1696 9.13801
-44.6004 -43.3036 10.6618
-43.4147 -38.8531 12.9345
-44.4718 -43.9034 9.89463
-49.6849 -44.9255 9.58686
-42.8901 -40.5734 11.6109
-42.8919 -40.8199 11.5667
-49.498 -44.6847 9.73461
-43.9265 -40.2691 12.5025
-43.116 -40.262 11.7917
-48.9907 -44.3017 7.38751
-46.4452 -44.4674 9.93602
-42.6282 -40.8011 11.1307
-47.9011 -44.7221 8.48764
-43.648 -42.8632 10.3587
-44.5717 -43.0339 11.1639
-48.3934 -44.508 8.68934
-43.1645 -41.8675 11.3907
-43.1511 -40.5034 12.0653
-49.0511 -44.5527 8.12275
-50.223 -44.2921 7.79828
-42.9727 -42.2878 10.5402
-44.4351 -39.8168 13.6255
-48.2778 -39.888 15.906
-46.8065 -44.7736 9.19635
-47.3033 -44.5672 9.99463
-44.6712 -43.2234 10.6663
-53.149 -44.3615 7.93329
-44.527 -39.0992 13.4904
-43.0335 -40.8445 11.5724
-44.2532 -43.0838 10.8816
-47.734 -43.7627 8.50152
-43.7103 -39.3156 12.936
-51.1132 -43.9869 7.46334
-46.7326 -44.5239 9.26517
-45.7339 -43.9857 8.56498
-44.7242 -39.2052 13.7587
-43.9579 -43.126 10.2411
-44.1799 -40.3029 13.3172
-43.4635 -39.2274 12.9316
-43.738 -42.7728 10.3961
-49.6156 -44.8591 9.59868
-41.9936 -39.549 11.9207
-51.7143 -43.5197 7.19969
-46.0224 -44.4634 10.3509
-43.429 -42.4429 10.9613
-45.3787 -44.1266 10.1548
-47.4985 -44.536 8.5156
-51.9001 -38.5913 18.1867
-43.1919 -42.9387 10.824
-43.0475 -40.3175 11.5786
-45.6176 -39.7912 14.252
-43.2013 -40.6576 12.0392
-50.4248 -44.5241 9.17889
-43.0951 -41.3291 11.4925
-43.0975 -42.2515 11.0921
-44.7769 -43.2925 10.1782
-43.0674 -39.7496 12.2871
-44.8639 -39.228 14.0039
-43.7977 -43.187 10.7799
-49.8133 -44.9015 8.73189
-48.3778 -44.6838 10.0645
-47.3533 -44.325 8.92618
-44.5213 -43.8188 10.2489
-42.9377 -40.7708 11.848
-53.3437 -44.5842 7.43166
-43.815 -39.5877 13.2411
-42.8361 -39.807 12.2131
-46.8883 -39.8652 15.2859
-43.3764 -40.2986 12.587
-44.7493 -38.7299 13.9442
-42.2661 -39.8485 11.6245
-46.5357 -44.1611 10.3804
-42.8509 -39.6808 12.2746
-49.9599 -44.7851 8.33199
-50.8888 -44.6444 7.62682
-44.7276 -38.7531 14.0608
-45.2277 -39.5503 13.9921
-43.3373 -41.3171 11.6834
-44.2666 -43.0379 10.8498
-42.6913 -40.8361 11.4918
-42.6926 -39.1956 12.2271
-43.9571 -38.2972 13.3675
-43.7526 -43.3678 9.82002
-45.0769 -43.7222 10.4346
-43.6539 -42.9625 9.45791
-43.5721 -39.7626 12.7996
-42.7751 -39.2704 12.1671
-45.9818 -38.7089 14.3519
-46.0696 -44.1233 9.97361
-44.7503 -42.9472 10.8716
-49.4898 -44.2774 8.64733
-43.265 -42.1848 11.1054
-50.6285 -45.2046 8.77284
-56.4549 -44.0694 6.48358
-50.0988 -38.9633 17.3284
-46.3694 -39.7069 14.808
-42.9793 -40.2977 12.0346
-47.3859 -44.2982 8.49527
-43.5914 -42.4915 11.0874
-49.8234 -44.6161 9.62685
-44.2611 -38.7315 13.2981
-46.7625 -44.2445 10.3685
-52.5294 -44.5606 8.52679
-43.0876 -40.3921 11.9932
-44.278 -43.5124 10.3265
-50.0992 -44.6018 9.31578
-43.7603 -39.8798 12.7461
-44.9664 -43.7491 10.2147
-44.6553 -38.6158 13.9748
-46.7898 -44.3796 10.0889
-48.6073 -39.5045 16.3473
-44.8752 -38.6731 14.1434
-43.6457 -39.6518 12.9287
-44.5008 -43.8157 10.3054
-45.0729 -43.9862 9.90559
-45.6694 -44.0279 10.664
-51.956 -44.4848 7.96877
-43.1776 -40.7825 11.5095
-43.0372 -38.7704 12.6558
-46.3817 -44.2761 10.1293
-46.9929 -44.4369 9.66465
-45.5138 -43.5926 10.2882
-45.6298 -44.1431 10.3917
-47.7682 -44.4063 9.52419
-43.7327 -43.0005 10.9163
-49.6375 -35.4227 26.6578
-43.9381 -43.2812 10.6077
-47.1443 -39.7416 15.6779
-54.1664 -44.4503 7.48944
-45.6261 -44.2495 9.58226
-47.857 -39.7237 16.1408
-43.164 -41.6364 11.5445
-48.4422 -44.6259 9.68773
-45.6694 -39.4016 14.5636
-42.5808 -41.2606 10.884
-43.4618 -40.4329 12.8928
-43.7419 -43.1014 9.45529
-42.9438 -40.5149 12.214
-51.1785 -44.6954 9.36126
-50.7497 -38.9028 17.5637
-45.3032 -44.1295 10.3915
-43.8158 -38.6672 13.1083
-46.5316 -39.6819 14.8677
-43.4662 -38.8476 12.9941
-42.6636 -39.9766 12.2678
-45.925 -44.3008 9.02159
-47.4405 -39.6848 15.365
-44.8455 -43.4433 9.96815
-52.0749 -38.4443 18.4815
[...]
POINT_DATA 10000
SCALARS t float 1
LOOKUP_TABLE default
220.847
213.661
210.167
214.58
211.848
214.296
212.171
211.519
211.609
211.042
213.708
211.236
214.651
213.426
213.914
212.011
216.76
214.434
212.183
213.025
227.614
214.495
213.79
220.291
210.548
218.794
219.881
214.593
211.851
213.601
225.765
211.751
213.032
212.824
211.427
214.012
210.44
212.658
211.866
214.274
222.308
219.566
213.287
212.59
211.29
211.276
211.044
210.809
212.887
226.254
214.014
210.882
211.262
217.966
213.702
213.638
214.371
221.1
211.973
212.093
211.56
211.282
216.342
210.829
211.184
215.998
214.527
210.576
213.418
214.631
214.304
216.351
214.285
213.645
214.636
227.849
212.686
226.101
212.767
227.992
219.804
228.248
210.348
213.797
211.753
214.371
210.388
210.428
219.961
214.509
221.076
211.965
213.588
212.953
212.775
210.154
225.062
222.032
211.769
222.009
212.938
213.054
217.645
213.029
216.589
214.742
213.982
211.783
213.171
214.122
210.613
212.377
213.655
212.854
210.45
210.811
220.113
210.883
213.364
210.897
214.375
214.654
210.471
212.253
210.496
222.146
211.754
214.504
211.748
210.243
210.838
227.434
213.375
212.395
211.199
218.502
210.195
212.036
213.11
212.427
210.773
228.939
214.041
213.911
210.15
214.502
213.503
220.731
217.706
217.453
213.696
229.206
233.819
214.545
212.183
210.269
223.14
210.669
210.295
212.354
212.558
212.037
224.411
213.183
214.506
214.644
212.165
218.616
211.751
220.339
209.983
211.523
214.62
214.008
210.202
213.035
214.856
209.83
210.102
212.779
210.019
210.211
212.32
215.041
210.071
213.034
210.012
212.519
214.07
209.948
210.365
211.299
210.654
213.794
214.613
211.056
236.5
214.419
213.749
211.467
212.138
213.849
218.487
226.947
213.863
211.828
213.574
211.518
211.466
214.371
223.357
229.08
211.996
211.468
216.015
218.25
210.647
210.178
212.51
220.886
212.255
211.748
217.028
211.455
210.941
213.329
224.384
212.396
210.608
210.999
214.177
209.982
210.387
215.434
211.532
217.621
210.524
213.915
212.777
214.804
211.476
211.366
214.048
213.325
211.807
230.383
212.563
210.722
221.805
211.127
210.679
220.346
210.897
212.442
224.486
227.134
210.648
214.443
214.671
216.883
212.318
210.546
225.556
214.082
211.362
210.007
221.97
213.902
229.929
216.477
221.716
214.255
211.471
214.363
213.95
211.056
214.738
212.469
232.439
211.433
210.037
211.811
221.68
213.107
209.721
211.475
214.576
212.364
217.001
211.15
210.275
211.777
213.002
214.439
209.962
219.883
212.355
218.739
211.471
211.893
229.318
214.232
212.884
214.67
213.603
214.276
211.753
211.501
213.023
222.731
228.139
214.404
214.409
211.446
209.959
211.263
212.997
213.995
213.264
211.168
215.77
213.851
212.843
214.212
212.376
210.193
220.641
210.337
219.466
236.714
213.715
214.732
212.409
221.908
210.304
214.648
213.93
211.544
221.158
212.285
211.246
216.241
213.771
211.66
214.309
212.055
214.297
214.405
213.963
211.321
212.749
210.797
225.395
211.274
213.695
211.945
214.121
211.618
211.331
214.942
209.923
217.522
210.444
214.61
228.795
214.664
214.431
211.191
214.114
214.692
210.138
214.082
215.758
212.831
216.097
213.633
211.261
213.921
214.68
213.956
213.041
218.25
214.563
212.428
212.85
214.764
213.823
213.029
209.883
211.845
214.141
212.712
210.289
213.716
211.39
213.378
214.627
213.433
213.438
211.778
213.563
211.991
221.239
210.67
231.592
214.11
219.643
229.061
211.216
213.578
211.013
211.506
228.316
213.654
210.12
211.461
210.193
211.659
213.834
211.975
215.693
211.13
214.789
214.67
228.053
211.39
217.131
210.943
219.19
211.515
211.437
219.13
209.943
210.429
210.662
215.307
211.67
217.402
212.379
211.462
214.5
210.036
220.027
210.53
210.702
211.058
211.455
213.013
217.506
210.627
211.564
209.88
213.879
211.031
223.556
211.366
211.142
213.197
214.322
211.293
223.936
222.313
213.875
219.57
224.55
218.755
210.637
211.406
214.61
214.698
213.527
211.577
209.751
211.354
210.339
215.978
210.121
211.189
212.022
227.083
212.357
210.68
214.235
210.457
212.35
225.15
224.707
210.787
214.368
211.254
221.433
210.3
213.101
214.585
231.166
214.202
212.438
218.146
212.879
217.81
228.937
214.104
210.409
211.944
213.314
211.324
210.727
212.536
214.386
214.555
211.517
234.966
211.453
217.367
221.298
217.903
210.371
210.253
214.646
212.408
212.25
211.275
217.365
214.704
218.491
213.81
214.023
212.787
226.852
211.243
214.317
213.305
212.246
229.296
214.048
213.807
239.063
216.662
218.083
222.268
228.652
210.976
211.944
213.923
211.916
213.651
210.67
210.59
213.302
209.927
223.035
218.113
223.646
213.121
228.023
213.506
214.48
217.738
212.128
213.582
211.568
212.982
210.214
212.414
213.137
214.434
210.901
215.473
214.755
210.942
211.322
218.867
210.075
210.197
212.527
214.176
214.058
210.798
209.999
213.817
218.454
214.289
212.186
212.015
212.861
217.09
231.64
209.939
214.44
216.094
214.145
214.24
210.449
214.341
212.3
210.09
211.003
225.96
232.602
212.519
226.596
211.151
210.373
210.745
210.757
212.479
210.512
215.94
212.505
210.59
212.911
214.443
212.1
211.397
210.686
211.814
213.771
216.556
211.746
210.896
211.253
214.05
210.426
210.62
211.814
214.197
210.589
212.075
226.268
228.991
225.371
211.13
210.052
212.698
214.404
216.188
210.352
220.577
214.307
210.899
214
210.842
211.205
213.484
212.638
210.797
212.496
213.161
212.772
214.541
212.14
213.388
221.833
210.846
218.508
213.465
213.483
223.432
211.797
218.049
214.345
211.745
231.281
209.905
211.129
211.323
214.541
210.605
214.631
213.873
211.597
213.659
210.852
211.339
214.507
212.375
214.545
212.558
212.495
212.864
212.946
214.594
219.762
211.603
211.649
218.41
213.493
214.575
225.086
219.069
212.971
210.959
214.008
231.023
211.162
210.459
210.565
211.364
235.527
210.647
211.873
212.719
212.127
210.733
212.683
221.359
211.341
214.078
213.074
229.098
228.039
212.459
217.75
214.385
222.277
215.22
214.035
210.563
214.511
211.951
211.503
211.624
214.117
213.111
210.536
213.187
221.581
212.181
212.256
211.793
209.839
210.735
213.753
215.957
221.071
210.544
211.522
214.672
213.315
209.933
215.14
224.464
223.112
216.221
211.311
211.216
210.249
211.552
213.91
213.046
210.954
214.719
213.568
212.477
212.89
217.903
210.693
214.712
211.395
210.192
220.514
219.696
222.41
210.618
228.7
224.065
211.752
212.655
210.371
212.184
211.565
211.068
212.567
213.046
211.775
213.11
221.001
216.337
211.409
209.991
233.071
210.931
210.474
210.426
210.864
221.731
216.957
211.817
210.684
211.433
211.29
210.452
220.399
210.02
210.498
220.604
210.71
214.539
219.359
211.568
213.109
217.971
211.006
212.86
214.654
210.627
210.196
213.631
209.855
211.27
211.783
214.101
213.586
213.486
214.636
221.851
229.001
221.177
222.994
223.327
225.441
212.808
230.83
213.317
216.309
216.267
213.776
211.521
210.623
211.474
231.939
212.5
210.353
214.158
220.465
215.985
211.772
210.776
211.613
214.223
230.664
210.86
221.048
212.5
210.847
211.012
213.68
226.368
210.385
212.554
210.564
211.762
217.818
211.915
211.438
212.978
210.271
214.205
210.508
210.026
223.221
219.091
212.741
213.615
210.417
214.346
210.586
210.142
211.457
225.708
210.982
213.538
212.458
213.135
212.98
212.16
211.516
214.429
212.827
217.183
214.601
222.533
220.75
210.21
211.233
215.202
214.295
211.885
211.589
211.537
232.169
213.443
213.157
210.867
212.273
215.05
212.567
211.812
219.498
211.44
211.297
211.17
213.464
213.425
211.052
211.542
214.524
210.26
213.795
211.453
213.52
211.892
212.231
210.14
212.997
215.209
213.927
213.519
214.587
210.481
210.727
213.679
237.197
215.238
211.604
210.372
210.906
211.915
214.665
214.15
210.477
212.001
214.459
219.404
212.73
231.958
214.361
213.703
211.834
223.942
214.645
226.022
213.062
210.928
211.503
211.533
211.825
212.458
210.267
209.839
213.372
210.046
212
211.027
222.241
229.061
211.303
229.059
213.714
212.938
215.603
210.793
212.569
209.84
223.838
214.365
211.383
213.504
213.144
212.904
216.006
212.782
237.482
211.912
211.416
216.928
210.887
214.13
216.553
214.596
214.162
214.501
212.11
214.328
213.917
213.562
210.04
210.305
218.545
214.083
214.28
213.912
211.823
221.355
212.829
210.991
211.956
210.67
213.925
211.034
214.228
214.626
211.206
214.017
230.55
210.104
210.32
215.422
213.521
215.126
211.887
210.75
221.961
227.486
218.796
211.487
213.323
213.432
213.183
217.622
211.096
211.734
214.543
210.209
219.326
212.689
209.808
213.305
214.667
211.145
226.99
212.968
209.933
210.521
217.328
221.346
214.697
212.637
213.88
230.019
210.721
240.41
227.361
220.196
211.427
220.475
213.698
211.128
219.807
210.998
213.841
212.885
211.139
211.717
214.684
216.471
214.327
211.184
222.21
210.634
210.625
210.349
221.987
210.495
212.004
209.737
212.577
211.711
213.103
211.294
218.02
211.546
219.341
213.923
214.666
212.147
228.447
212.141
221.059
211.943
210.807
210.387
213.111
212.285
219.388
212.109
211.373
210.368
213.601
210.178
224.927
216.71
211.278
220.46
229.481
213.975
221.982
216.385
214.162
212.101
210.992
211.351
222.72
214.475
225.657
214.11
217.943
232.939
211.26
238.031
213.905
210.13
216.955
221.484
211.205
212.125
215.845
212.376
241.664
213.873
212.925
210.279
212.939
211.918
218.593
210.944
219.004
212.446
211.566
214.283
211.538
213.701
213.954
214.052
213.354
227.449
236.341
211.41
211.02
211.236
214.082
214.075
210.926
213.282
232.92
210.134
214.161
211.243
210.162
213.618
210.312
214.25
212.868
214.011
210.684
213.797
216.392
210.395
212.985
212.767
234.849
219.953
211.496
215.363
221.843
210.748
216.826
214.725
215.174
214.632
216.045
210.727
220.472
219.631
217.491
216.402
215.194
209.879
217.17
221.582
217.594
214.175
213.742
213.3
213.104
211.835
214.063
212.262
222.929
210.05
212.502
209.879
233.548
213.439
214.598
212.543
216.853
211.632
229.327
211.485
210.869
213.298
210.652
210.296
219.399
213.975
212.34
213.046
213.655
211.497
213.113
233.727
211.309
214.587
227.829
213.852
210.098
214.366
213.738
210.477
211.528
214.173
224.47
215.156
214.313
212.605
214.291
211.712
231.34
225.071
209.881
214.228
210.496
212.812
225.121
214.333
211.894
210.161
229.786
213.698
213.971
217.502
219.824
211.337
229.794
210.796
210.772
210.515
219.828
210.07
215.47
213.651
210.93
213.967
213.471
214.153
215.111
213.197
213.818
214.594
214.592
212.318
220.855
213.286
211.444
210.465
214.405
209.953
211.413
212.921
213.585
232.649
210.266
214.04
212.692
211.187
230.529
213.988
210.498
212.669
214.555
211.291
212.609
212.252
214.83
210.007
212.416
210.977
212.481
219.965
215.425
214.483
212.27
216.665
218.525
213.846
227.248
214.104
214.162
213.81
211.408
212.078
211.557
216.655
210.285
210.96
213.203
217.686
213.183
229.738
213.003
213.74
220.706
214.283
211.714
211.444
211.982
212.993
213.197
214.922
210.603
211.387
214.463
210.253
221.653
217.629
231.271
215.168
211.398
212.463
210.815
213.857
211.094
210.854
213.956
219.129
213.496
223.407
211.988
210.026
210.831
210.829
210.694
211.957
211.606
212.552
210.058
212.974
214.094
211.135
214.685
210.652
213.503
211.994
214.229
209.891
213.693
210.429
212.154
210.889
212.96
218.029
211.663
212.783
222.016
211.66
211.424
214.314
221.263
211.056
210.801
212.968
214.389
210.758
211.074
218.329
211.797
213.549
214.055
210.063
211.099
211.449
211.602
212.976
214.71
211.501
232.748
216.186
211.46
213.996
210.65
228.509
211.528
212.222
211.668
220.547
228.171
210.989
211.466
210.398
211.095
212.414
210.466
219.134
224.785
214.017
210.766
231.957
229.634
211.703
212.531
212.868
219.303
212.91
215.879
210.994
224.001
212.568
224.186
214.562
212.536
212.729
230.591
213.332
210.684
212.415
211.132
214.51
214.408
218.908
211.133
212.376
211.064
211.272
211.169
213.986
211.932
211.103
214.625
210.757
210.741
214.484
211.533
211.274
213.531
213.475
211.541
214.611
209.809
215.849
210.09
213.945
212.099
221.726
220.766
214.406
214.044
217.727
211.193
221.143
211.054
223.881
212.655
213.215
214.605
216.513
213.952
211.525
218.633
214.243
211.624
220.171
210.645
214.096
210.636
219.848
213.236
221.146
212.701
213.496
229.911
212.616
212.386
212.099
214.619
210.062
211.732
211.914
214.232
211.478
209.989
210.862
214.2
217.325
213.435
218.512
211.603
235.178
209.979
214.287
211.248
211.721
218.576
225.026
212.849
213.165
210.184
222.86
218.477
210.332
213.867
210.424
210.449
215.591
227.594
214.31
214.301
214.766
211.829
210.988
223.144
212.533
214.608
211.119
216.435
210.688
212.167
210.832
221.068
213.06
216.515
210.671
212.485
210.909
211.69
215.469
211.9
220.27
222.124
210.877
211.972
211.927
227.166
216.101
210.261
211.829
212.284
212.568
211.323
213.538
212.55
221.907
211.809
212.228
212.081
210.385
216.925
221.19
212.326
211.223
211.365
212.682
210.16
214.508
218.911
210.009
212.397
220.173
212.122
211.075
212.434
214.612
212.043
215.22
214.611
229.953
212.11
211.526
214.412
210.612
212.529
212.206
216.466
213.385
216.429
212.797
234.458
214.359
214.032
218.977
227.726
213.964
229.871
211.853
213.953
223.969
210.847
214.678
215.37
210.35
213.893
211.439
211.091
213.073
210.34
212.573
210.966
211.791
211.197
216.192
212.722
225.253
212.116
216.74
210.37
213.251
213.404
212.95
218.296
214.345
211.198
209.873
218.001
217.336
223.692
214.101
213.235
228.431
211.052
210.738
211.271
214.44
213.671
211.658
212.756
210.478
210.696
211.456
214.481
214.578
214.444
221.282
211.048
211.451
212.506
213.41
218.167
210.835
211.929
212.021
210.306
214.674
210.927
211.424
211.408
233.231
213.373
214.53
211.04
211.011
214.112
218.904
212.001
214.252
210.437
219.321
214.853
211.368
212.874
210.54
210.734
212.949
226.619
211.449
214.138
213.064
215.116
211.651
211.622
210.366
218.777
216.436
218.482
211.438
211.001
213.523
210.206
210.365
210.16
217.944
215.361
212.172
223.016
214.733
214.541
216.467
212.182
210.692
215.006
216.091
211.629
226.684
226.679
222.033
214.226
214.662
210.911
210.371
213.629
211.422
210.655
211.478
213.869
214.112
210.175
212.337
212.696
219.765
210.397
212.909
215.44
209.851
221.447
212.892
213.572
210.505
214.908
213.91
220.349
211.588
212.194
211.791
226.679
211.02
211.283
210.027
210.382
211.237
211.786
215.97
211.232
213.201
226.763
224.081
212.501
211.946
210.761
214.388
227.628
216.837
215.64
210.125
215.532
211.039
211.787
213.671
214.299
209.894
214.093
211.526
210.94
213.863
210.984
214.071
214.856
214.006
213.049
213.959
210.542
223.327
212.277
213.07
218.813
214.011
212.562
214.002
211.404
220.444
230.348
210.874
215.413
213.173
227.692
211.313
212.837
209.998
210.122
222.736
211.145
216.106
212.271
214.149
231.247
215.047
227.434
213.662
214.625
213.685
214.582
216.747
211.395
210.92
223.177
214.029
214.041
212.889
230.871
224.056
211.812
226.711
229.651
211.083
214.975
213.116
213.843
218.323
212.279
215.717
210.639
211.509
210.821
210.729
211.703
210.74
215.852
212.661
210.978
232.416
213.393
214.34
211.515
218.341
219.651
210.612
216.491
216.189
214.596
213.134
215.268
210.135
210.351
219.535
210.932
211.397
210.548
213.914
216.722
214.669
210.426
214.468
214.434
214.52
213.45
209.83
211.28
211.547
217.148
210.196
223.079
212.949
213.367
216.635
215.34
214.632
214.083
210.697
219.802
211.6
210.434
217.836
216.317
210.914
211.042
210.278
210.246
211.222
211.905
212.781
214.571
213.181
209.998
210.697
214.054
214.306
211.542
211.284
212.963
211.211
219.989
211.023
211.395
226.918
210.493
210.815
212.606
218.419
212.794
210.055
210.467
213.643
210.184
211.421
225.627
214.455
214.344
228.885
219.754
213.153
222.225
214.685
211.939
212.8
210.11
215.487
210.996
211.492
212.406
211.34
217.976
214.531
213.006
214.866
218.214
218.527
209.817
219.492
210.49
211.809
216.961
211.645
212.534
210.379
211.523
210.626
213.185
210.563
211.469
211.171
214.237
212.354
211.903
210.461
210.743
210.991
216.046
226.894
230.525
211.994
209.991
231.707
224.592
212.359
226.237
211.352
222.072
221.44
218.13
221.176
212.91
212.196
211.563
214.634
211.774
210.625
230.577
212.826
214.495
214.543
211.446
216.361
212.112
210.685
212.214
214.596
216.72
210.178
209.956
210.318
210.25
211.623
210.781
210.188
214.497
219.383
214.339
217.058
214.65
214.613
210.864
211.513
224.255
212.024
226.174
228.309
222.077
223.579
220.175
211.783
211.449
213.286
211.912
215.266
210.176
212.695
211.89
209.988
210.495
225.495
221.399
212.111
210.516
214.572
214.64
224.39
212.597
209.93
215.64
212.023
211.111
216.539
210.265
221.432
214.738
218.771
213.882
220.7
219.165
211.246
209.93
212.536
211.441
223.902
211.517
212.907
213.94
210.365
213.95
216.861
214.012
210.946
211.627
211.386
227.622
229.264
230.575
214.157
211.17
213.149
209.736
213.72
214.618
210.922
230.526
212.912
209.889
223.084
210.767
210.412
216.828
213.457
232.936
211.985
209.871
212.345
214.622
210.244
212.39
216.509
210.744
212.537
213.424
211.169
211.992
210.264
216.885
214.075
213.42
212.744
210.992
222.609
211.423
214.419
211.713
210.456
222.032
214.654
215.758
214.339
209.816
215.164
213.384
211.219
212.794
212.932
214.241
234.589
213.979
211.79
217.791
214.641
211.035
211.887
219.467
213.521
213.274
229.171
220.74
210.966
210.073
226.844
211.875
212.247
216.076
210.71
211.076
213.731
226.837
212.974
213.188
211.523
213.923
211.962
211.959
210.329
213.127
210.234
211.288
211.889
212.481
212.057
215.246
209.995
210.647
219.016
210.799
210.35
214.122
212.465
211.454
212.765
212.008
212.63
212.145
214.999
214.068
210.302
210.941
210.967
219.208
211.937
212.188
217.993
213.277
209.84
220.48
210.684
213.167
214.077
213.574
223.12
212.156
212.412
213.296
242.995
209.817
227.614
211.951
212.373
221.522
210.941
213.65
210.9
231.193
214.381
212.859
214.372
211.916
213.287
222.578
217.948
213.394
219.751
214.141
212.507
214.487
211.293
213.989
210.553
220.249
210.283
213.772
220.276
213.926
210.186
217.24
214.705
215.162
211.954
210.9
210.865
216.552
220.859
223.378
213.538
210.924
218.074
212.444
211.131
214.158
211.409
211.061
211.651
212.91
212.276
210.687
221.011
211.477
213.516
213.126
210.762
213.25
211.33
213.579
210.916
212.712
217.978
214.512
212.125
212.72
214.061
212.188
223.879
219.932
215.146
213.776
210.882
211.023
212.567
211.626
216.299
209.879
211.499
214.542
214.346
210.226
228.336
212.549
210.824
212.349
217.229
218.934
214.469
211.797
217.404
210.392
214.461
212.603
213.966
211.944
210.96
214.727
210.546
214.152
211.674
222.751
212.936
226.578
212.128
214.142
218.11
213.761
210.679
210.239
213.46
213.876
214.409
213.658
211.476
218.645
211.036
211.884
214.369
210.246
211.675
210.434
213.603
226.381
213.596
211.959
215.526
216.885
213.593
210.304
213.141
211.841
213.564
212.658
216.031
213.06
210.794
215.905
212.118
214.843
222.631
214.574
212.145
211.727
216.657
210.391
218.852
228.807
212.545
210.48
212.472
210.849
240.473
211.787
215.288
210.579
211.902
211.034
211.201
212.555
212.526
235.679
216.471
228.435
214.773
210.119
216.501
224.368
214.6
211.281
215.275
228.263
212.847
211.135
216.911
210.187
213.501
211.35
210.098
211.49
212.881
214.605
212.493
211.477
223.402
210.477
223.382
213.115
210.572
211.495
211.959
224.762
210.47
211.21
214.64
211.263
210.011
214.024
214.793
213.042
214.315
214.649
212.418
211.663
212.684
212.407
211.459
220.882
219.718
213.787
211.546
214.258
219.517
213.734
211.255
216.055
217.993
212.838
217.372
211.768
211.635
230.459
217.557
213.168
213.955
213.858
223.348
218.236
211.797
221.185
214.661
210.654
230.607
214.281
211.181
210.498
222.717
210.021
219.772
211.718
211.358
214.644
220.246
211.521
215.119
213.491
211.16
214.791
212.824
211.236
215.485
219.828
214.171
221.486
214.203
211.093
210.122
213.932
212.009
211.033
210.905
214.028
217.694
210.558
211.852
219.645
214.15
211.778
211.449
214.616
210.041
211.219
211.85
213.552
212.777
214.336
210.265
212.259
211.941
218.396
218.498
214.081
214.485
214.62
210.417
212.808
211.992
211.811
212.33
214.384
211.863
211.282
210.952
211.429
212.156
210.816
211.292
213.323
210.993
219.106
213.082
214.091
211.869
213.568
212.377
218.248
217.864
214.07
211.008
219.979
212.3
217.169
214.224
211.705
210.781
211.833
214.333
213.81
214.017
212.299
212.527
210.231
211.151
215.622
214.502
210.17
213.866
219.758
211.967
210.845
212.411
220.785
210.285
211.614
211.673
216.282
211.775
211.125
211.333
210.451
213.513
216.214
222.941
212.098
211.517
211.299
212.175
211.484
211.367
225.728
222.258
218.581
220.16
210.254
224.463
213.439
211.096
222.73
229.96
209.902
213.636
213.1
210.846
212.694
210.926