# vtk DataFile Version 3.0
vtk output
ASCII
DATASET POLYDATA
POINTS 10000 float
-72.0487 -40.6418 7.93573
-72.079 -40.6935 12.56
-72.1834 -40.5957 10.6214
-71.9629 -40.4462 14.9823
-72.1291 -40.6017 11.4367
-72.1345 -40.4537 14.3104
-72.072 -40.6228 9.15929
-72.201 -40.609 11.2091
-72.0789 -40.4758 11.1147
-72.089 -40.4644 9.68237
-72.3652 -40.4279 8.78097
-71.998 -40.6982 9.53171
-72.1018 -40.6113 14.5842
-72.148 -40.595 12.2901
-72.162 -40.5985 13.4948
-72.0718 -40.7389 11.2992
-71.9972 -40.7116 8.54575
-72.09 -40.6465 14.2229
-72.0794 -40.6348 11.5989
-72.0487 -40.4742 11.8786
-72.1701 -40.6921 6.89807
-72.1485 -40.6246 14.4481
-72.2611 -40.5963 12.853
-72.0598 -40.7659 7.93613
-72.1369 -40.5439 9.69731
-71.9665 -40.5742 8.15287
-72.1024 -40.7513 7.80751
-72.0233 -40.6291 15.507
-72.1139 -40.4786 9.31499
-71.9594 -40.6755 12.8029
-72.1265 -40.6679 7.21806
-71.9279 -40.3476 11.2726
-72.0845 -40.559 8.97061
-72.0786 -40.5659 9.11002
-72.157 -40.3528 11.0433
-72.2744 -40.7512 12.7816
-72.0829 -40.5293 9.58835
-72.2012 -40.4413 12.0778
-72.1736 -40.5306 11.5305
-72.1324 -40.5597 13.0017
-72.1921 -40.6898 7.65532
-72.1 -40.7012 8.07144
-72.0842 -40.5851 12.0069
-72.3633 -40.6898 11.5572
-72.1995 -40.438 11.0452
-71.9408 -40.5652 10.7866
-72.2701 -40.536 10.6156
-71.9057 -40.7061 10.7251
-71.8861 -40.3662 11.5281
-72.0744 -40.6847 7.15582
-71.9703 -40.7867 12.8307
-72.2666 -40.6645 9.83913
-72.2779 -40.5414 9.64139
-72.0222 -40.5699 8.19454
-71.9935 -40.6195 12.7702
-72.114 -40.7506 8.8031
-71.9427 -40.5403 14.0746
-72.0638 -40.4163 7.87631
-72.403 -40.4842 9.19243
-72.1581 -40.6109 11.3236
-72.1173 -40.3973 9.44607
-72.1351 -40.7711 9.68489
-71.9366 -40.5078 8.44843
-72.2277 -40.5808 10.4908
-72.3315 -40.6577 9.57803
-72.032 -40.4238 8.51391
-72.0096 -40.5648 15.8602
-72.2516 -40.7167 10.3419
-71.9793 -40.5049 18.1818
-72.2162 -40.5373 14.9107
-72.3908 -40.5344 13.4579
-72.1628 -40.7382 8.50173
-72.0546 -40.4439 13.4778
-72.389 -40.6726 8.77603
-72.0992 -40.5621 15.1351
-72.0355 -40.5309 7.08125
-72.1062 -40.5591 11.8394
-72.0779 -40.3011 7.20424
-71.8768 -40.7196 11.9101
-72.0691 -40.6615 6.86812
-72.1676 -40.8956 8.08155
-71.9871 -40.52 6.88304
-72.2827 -40.562 9.9088
-72.2668 -40.5453 12.8527
-72.0251 -40.5584 11.2145
-72.0424 -40.3403 13.8989
-72.0444 -40.6232 9.79825
-72.1975 -40.4537 10.2568
-72.3881 -40.5637 7.9726
-72.1225 -40.6922 14.2904
-71.936 -40.6737 7.91655
-72.1596 -40.5784 9.35862
-72.0164 -40.2143 12.2878
-71.8572 -40.597 19.0995
-72.027 -40.6608 8.85688
-72.0241 -40.4146 9.88196
-72.1786 -40.6091 7.33986
-72.2886 -40.5966 7.70087
-72.0356 -40.5586 11.3386
-72.2504 -40.3713 7.62672
-72.0826 -40.5094 8.95539
-72.0727 -40.6089 8.97015
-72.2582 -40.4157 8.15853
-71.897 -40.6799 12.0863
-72.2134 -40.4676 8.3761
-72.1335 -40.6343 8.81544
-72.3608 -40.6353 13.107
-72.125 -40.5554 11.2896
-72.4124 -40.5547 11.8266
-72.088 -40.6029 12.9508
-71.9003 -40.6978 9.87622
-72.1289 -40.6488 11.9571
-71.8319 -40.6386 12.6104
-72.1259 -40.8937 12.3078
-71.8876 -40.738 9.82437
-71.9238 -40.6298 10.6881
-71.852 -40.6131 7.93132
-72.0534 -40.3726 10.0594
-71.9771 -40.5235 8.91991
-72.0366 -40.3111 9.84219
-71.9876 -40.5321 13.6517
-72.5574 -40.5059 15.7346
-72.1447 -40.5391 10.5797
-72.1936 -40.5861 11.6695
-71.8149 -40.6527 9.63352
-72.3245 -40.7255 7.76667
-71.9538 -40.6256 11.3694
-72.084 -40.4879 14.4004
-72.2393 -40.3645 9.20109
-72.1281 -40.4554 9.76865
-72.1665 -40.6519 10.4922
-72.0422 -40.6661 7.03052
-71.9196 -40.8002 9.0893
-72.11 -40.7032 11.7064
-72.3078 -40.5355 10.7805
-72.5154 -40.53 8.05446
-71.8471 -40.5771 9.92917
-72.3653 -40.4864 11.3294
-71.9446 -40.382 11.8203
-71.7807 -40.6626 9.08565
-72.1067 -40.6126 10.6107
-72.1685 -40.6203 6.7547
-72.2239 -40.5463 13.1497
-72.0334 -40.6224 16.779
-72.2754 -40.5558 10.1432
-72.2086 -40.5367 14.6656
-71.9718 -40.5661 8.87613
-71.9046 -40.6287 7.78394
-71.8612 -40.5148 8.10769
-71.8613 -40.656 8.28571
-72.0476 -40.5515 12.782
-72.2437 -40.5933 6.83491
-72.0842 -40.5811 6.18983
-72.0022 -40.5861 15.6048
-71.9762 -40.7326 11.6241
-71.9807 -40.4117 10.2514
-72.0136 -40.4005 7.66083
-72.3332 -40.5095 10.3634
-71.9384 -40.7335 10.2003
-71.9951 -40.4051 11.3762
-72.0837 -40.4803 9.08635
-72.3601 -40.5619 11.4471
-72.1869 -40.6477 7.37559
-72.4701 -40.7021 12.1779
-72.2576 -40.5829 14.0164
-72.1663 -40.7216 15.1272
-72.127 -40.6065 9.03635
-71.7603 -40.6459 8.11885
-72.2939 -40.8694 11.1399
-72.2729 -40.6887 7.8857
-72.0195 -40.4811 10.1557
-72.2533 -40.5663 9.3352
-72.0596 -40.7241 15.8498
-72.1093 -40.7135 17.0557
-72.2847 -40.5601 10.4311
-72.6359 -40.5637 11.9029
-71.8472 -40.4106 8.79463
-72.0458 -40.535 10.0345
-71.9998 -40.5474 10.0289
-72.1908 -40.5892 9.00966
-72.1424 -40.495 10.2722
-71.9264 -40.5486 9.9983
-72.0725 -40.6215 9.13167
-71.824 -40.4413 8.5931
-72.148 -40.5011 9.98971
-72.066 -40.7221 12.1732
-72.04 -40.7878 10.1531
-72.2282 -40.3148 11.6873
-71.9118 -40.4811 13.135
-72.1658 -40.5086 9.88537
-71.9008 -40.5832 10.3409
-72.1428 -40.6175 10.9515
-71.965 -40.8529 10.5812
-72.1984 -40.4857 12.4316
-72.1703 -40.5188 16.0607
-72.185 -40.7822 10.6664
-72.0537 -40.6777 6.11618
-72.3438 -40.5868 14.0085
-72.2085 -40.4517 12.4457
-72.0401 -40.6293 9.58321
-72.0665 -40.5775 9.02823
-72.1047 -40.5139 12.4454
-71.999 -40.7916 7.99899
-72.0506 -40.3859 7.10173
-71.9917 -40.5697 12.133
-71.8629 -40.7401 11.2276
-71.8814 -40.5797 8.84058
-71.9961 -40.6516 9.62332
-72.0701 -40.6172 9.47819
-72.349 -40.4165 16.2947
-71.9296 -40.6048 7.61863
-72.2647 -40.6074 7.01362
-71.9289 -40.4894 9.24602
-72.0707 -40.5108 9.47846
-72.1094 -40.3947 8.49218
-72.2912 -40.8399 8.2287
-71.7371 -40.4951 9.75307
-72.2149 -40.3928 10.2676
-72.3844 -40.8509 11.3979
-72.222 -40.7158 7.88352
-72.1423 -40.6408 11.8929
-72.099 -40.3226 11.2185
-72.2514 -40.5897 8.55507
-71.9521 -40.7237 10.8293
-72.2453 -40.5096 10.6755
-72.0508 -40.5505 8.98372
-72.068 -40.6752 7.35694
-72.3669 -40.5611 9.12156
-72.0854 -40.5888 9.8573
-71.8643 -40.5331 10.7363
-72.1903 -40.7059 13.1587
-72.0146 -40.5965 10.3011
-71.9793 -40.6032 9.91051
-71.9851 -40.7267 8.70452
-72.0299 -40.4293 9.41723
-72.0447 -40.545 8.38207
-72.2646 -40.676 9.76156
-72.0346 -40.5603 12.6859
-72.1565 -40.4414 9.09443
-72.1139 -40.6657 8.71532
-72.2293 -40.4965 11.0656
-72.2073 -40.4674 11.0312
-72.1807 -40.929 8.91773
-72.1892 -40.5831 12.466
-71.9796 -40.8556 11.3906
-71.732 -40.5355 6.67973
-72.1879 -40.5801 9.07986
-72.0714 -40.6356 10.8415
-71.8521 -40.6201 7.68023
-72.1223 -40.4661 9.47708
-72.4831 -40.8449 10.4598
-72.085 -40.5793 7.87938
-72.2801 -40.7684 10.7326
-72.3106 -40.6834 11.7697
-72.1511 -40.588 7.31404
-72.3465 -40.5072 7.09885
-71.8598 -40.5806 9.75834
-72.1357 -40.495 13.6309
-72.2473 -40.6477 16.0638
-72.111 -40.5951 8.41759
-72.2816 -40.6534 9.21132
-72.2121 -40.6643 10.0476
-72.4439 -40.6528 7.26885
-72.2746 -40.7255 13.7327
-72.1825 -40.6568 11.1272
-72.0282 -40.691 9.85521
-71.9814 -40.7498 7.66594
-72.2125 -40.467 12.6974
-71.9429 -40.5637 6.67784
-72.0458 -40.6249 8.40899
-71.9938 -40.4395 7.76622
-72.3596 -40.5413 13.8238
-71.9914 -40.4694 9.35511
-72.1991 -40.8286 13.3406
-72.0973 -40.636 12.7862
-71.8678 -40.5664 9.6271
-72.2016 -40.8053 8.90044
-71.8511 -40.552 11.6854
-72.1047 -40.6298 6.70737
-72.2715 -40.7114 9.47199
-72.1905 -40.5693 9.99551
-71.9551 -40.5842 9.05825
-71.793 -40.7079 7.72919
-72.0697 -40.5937 18.466
-72.1245 -40.6432 10.1395
-72.2632 -40.4237 11.002
-72.3157 -40.3793 14.1383
-72.0414 -40.3839 11.3655
-72.1486 -40.8124 8.30647
-72.3142 -40.4306 10.7306
-71.9926 -40.7097 10.3314
-72.2197 -40.5133 9.35383
-72.0745 -40.5369 11.8781
-71.904 -40.5327 14.0105
-72.1507 -40.4994 10
-72.2086 -40.6392 7.82609
-72.319 -40.6232 9.21236
-72.0874 -40.5808 8.01767
-72.2183 -40.5422 9.60645
-72.0918 -40.4261 10.9833
-72.108 -40.535 6.73771
-72.0479 -40.766 13.1867
-72.0444 -40.5964 12.1564
-72.1885 -40.7258 15.2104
-72.1815 -40.7016 12.4653
-72.0318 -40.6292 13.9962
-72.0065 -40.4231 11.279
-72.0293 -40.8042 9.4654
-72.1914 -40.5031 12.1432
-72.0317 -40.7708 7.6343
-72.0554 -40.6163 7.03128
-71.9363 -40.5016 14.2507
-72.2909 -40.6221 13.7516
-72.1555 -40.5573 10.936
-72.3486 -40.4817 10.0656
-71.9887 -40.5894 11.081
-72.0564 -40.4173 12.0943
-72.222 -40.4257 13.3804
-71.7704 -40.5785 8.9848
-72.4119 -40.4858 9.63176
-71.6174 -40.5796 8.80952
-72.0842 -40.6749 12.7542
-72.1346 -40.4164 11.6791
-72.3453 -40.5024 14.4779
-72.1947 -40.6787 9.13559
-72.255 -40.5895 10.086
-72.22 -40.6916 7.86785
-71.8519 -40.6586 10.2602
-72.2757 -40.6417 7.98863
-72.0965 -40.5727 5.80654
-72.0572 -40.5569 17.6596
-72.1867 -40.595 14.8973
-72.0641 -40.6973 11.5604
-71.9316 -40.7772 7.75502
-72.1289 -40.6589 10.1859
-72.402 -40.6247 8.83248
-72.3204 -40.5549 13.4098
-72.4494 -40.553 9.25622
-72.5347 -40.6134 7.89081
-72.3921 -40.5606 11.3608
-72.0853 -40.6061 9.56683
-72.2485 -40.7663 8.54054
-72.2577 -40.4998 12.5056
-72.0834 -40.5767 9.42423
-71.8524 -40.5019 14.1132
-72.2205 -40.5251 9.32147
-72.2574 -40.5117 16.5046
-72.0443 -40.4046 14.1664
-72.0104 -40.8071 13.1462
-72.2715 -40.4691 9.53484
-71.8887 -40.6149 8.95027
-72.4355 -40.679 9.8714
-72.2662 -40.525 7.17455
-72.1381 -40.6333 10.8645
-71.7855 -40.6151 12.5607
-72.2232 -40.5838 9.1641
-72.0279 -40.587 8.9115
-72.3404 -40.495 9.25771
-72.2085 -40.573 9.71954
-72.155 -40.557 8.65502
-71.9641 -40.6552 9.85724
-72.2143 -40.7308 27.4517
-72.0705 -40.5322 9.54948
-71.7961 -40.5608 15.8876
-72.165 -40.7385 6.90993
-71.9012 -40.4896 8.57006
-72.0776 -40.5299 15.9951
-72.0416 -40.6777 10.8598
-72.414 -40.5784 8.7514
-71.993 -40.3604 14.4701
-71.9763 -40.312 10.1207
-72.2214 -40.605 12.4851
-71.8795 -40.5505 8.58689
-72.0148 -40.8133 11.9491
-72.1486 -40.8452 8.70607
-72.0817 -40.4029 17.6134
-72.116 -40.6951 9.56371
-72.0378 -40.4892 13.1763
-72.051 -40.595 15.1725
-71.9435 -40.2969 13.1207
-71.965 -40.7054 11.7995
-72.0861 -40.5528 8.04833
-72.3171 -40.5583 15.583
-71.8173 -40.6187 9.03542
-71.9937 -40.5613 18.6725
-71.9534 -40.5839 14.6637
[...]
POINT_DATA 10000
SCALARS t float 1
LOOKUP_TABLE default
227.958
217.428
217.507
216.768
217.409
217.172
220.835
217.428
217.249
219.118
222.998
219.399
217.185
217.493
217.394
217.288
223.957
217.256
217.397
217.387
235.423
217.233
217.562
227.851
219.074
226.554
228.742
216.145
220.363
217.301
233.077
217.102
221.853
221.135
217.327
217.623
219.395
217.56
217.494
217.41
229.824
226.975
217.433
217.744
217.383
217.04
217.633
217.032
217.122
233.58
217.349
218.678
219.367
226.276
217.314
222.565
217.168
228.541
220.945
217.41
219.943
218.969
224.674
217.692
219.534
224.378
215.708
217.82
214.162
216.988
217.54
224.192
217.251
222.849
216.655
234.29
217.466
233.497
217.205
235.761
226.734
235.816
218.536
217.554
217.206
217.125
218.623
217.921
227.687
217.279
228.091
220.174
217.316
214.083
222.334
218.42
232.172
229.535
217.258
230.247
221.974
221.807
226.604
217.227
225.171
222.607
217.617
217.359
217.854
217.388
218.19
217.497
217.166
217.524
218.319
217.108
228.054
217.993
222.107
218.575
217.239
216.091
217.515
217.562
218.937
228.965
217.161
217.153
220.866
218.871
217.598
234.583
220.953
217.474
217.524
227.152
218.035
217.684
217.263
221.022
217.42
236.538
217.467
214.741
218.101
217.18
222.298
229.068
226.917
225.599
217.345
235.882
240.987
216.014
217.28
217.694
230.087
217.96
217.598
217.224
221.323
217.709
231.875
217.884
217.354
216.722
221.493
226.74
217.504
228.199
217.842
220.318
215.705
214.502
217.823
218.121
222.804
217.988
217.941
221.67
217.844
217.911
220.975
223.892
218.188
217.428
217.737
217.626
217.185
218.525
217.462
217.267
217.214
217.521
215.56
217.426
241.55
217.403
217.53
219.311
221.534
217.418
227.412
234.234
217.314
216.993
222.441
219.129
219.688
215.388
230.266
234.55
220.495
219.766
224.522
225.798
218.567
217.928
217.713
228.207
217.516
217.312
224.044
216.989
217.55
221.78
232.069
221.216
218.494
216.996
217.49
217.635
218.216
223.074
219.978
225.071
218.904
217.341
221.33
223.101
217.428
217.389
221.842
217.525
217.204
237.596
221.324
217.147
229.837
219.823
217.95
228.386
217.49
217.736
232.396
233.916
218.608
217.319
215.56
224.8
220.674
218.084
232.481
217.484
217.374
218.388
229.794
217.51
237.388
224.827
229.315
217.441
220.156
217.52
217.42
219.066
222.044
217.118
236.957
219.784
218.18
221.325
229.436
214.167
217.907
217.451
217.259
217.282
225.324
217.581
217.536
220.277
217.422
217.159
218.16
228.666
220.715
227.44
219.431
217.225
236.78
217.396
217.381
216.614
217.541
217.258
217.208
219.561
217.541
229.984
234.599
217.125
217.449
217.286
218.279
217.114
217.383
217.386
221.627
219.529
222.517
217.421
217.494
217.259
220.967
218.124
228.334
217.464
227.543
243.996
214.306
217.016
217.368
229.151
217.857
222.607
217.504
220.698
228.148
217.725
219.415
223.968
217.581
219.907
217.113
220.376
215.125
217.121
217.384
219.734
221.829
218.735
233.399
217.229
217.109
220.92
222.114
220.676
219.046
223.525
218.34
215.166
219.513
215.58
235.311
224.002
215.591
217.096
223.059
217.024
217.848
217.564
223.852
217.382
223.002
214.296
219.387
217.285
216.593
217.143
217.306
227.257
216.169
221.344
214.124
217.11
217.294
220.845
217.825
219.982
217.454
217.746
217.828
222.58
217.168
217.504
217.184
221.84
217.525
217.115
217.527
219.951
229.513
218.85
237.918
214.779
227.68
235.001
217.251
214.367
217.099
217.671
234.77
217.631
217.731
219.967
217.699
219.699
217.352
220.387
224.001
217.35
222.265
216.499
234
220.509
225.312
219.81
228.031
217.261
219.85
227.112
217.854
218.586
217.395
223.358
219.877
225.642
218.091
220.639
217.314
217.68
229.072
217.68
218.181
219.198
219.58
217.399
226.153
217.736
219.448
217.988
217.538
220.104
231.388
216.858
217.498
217.246
217.418
216.99
231.497
229.934
217.672
227.591
231.401
227.298
217.619
217.499
217.363
217.204
222.366
217.271
218.836
218.573
217.818
223.996
218.212
217.657
220.595
233.341
217.655
218.987
217.314
218.259
217.441
232.136
231.684
217.723
217.41
219.965
229.795
219.417
222.623
216.068
237.573
217.517
217.968
227.216
221.567
225.902
234.855
217.365
217.814
220.853
217.339
216.931
217.179
217.66
222.782
217.208
217.444
239.531
217.233
225.79
229.217
226.501
218.261
217.741
217.039
217.654
217.117
219.565
225.363
216.749
227.586
217.677
217.242
217.703
234.462
217.343
217.533
220.977
220.549
235.671
217.618
217.289
244.278
214.491
225.698
214.707
234.949
219.285
217.729
221.422
221.057
217.42
218.996
218.06
221.888
217.886
229.253
225.895
231.4
214.174
233.598
222.798
217.278
226.223
217.617
217.419
217.211
217.702
218.118
217.425
217.645
223.063
217.652
224.007
216.7
217.381
219.228
227.234
218.206
218.509
217.651
217.236
214.847
217.919
217.95
217.343
226.223
217.256
217.611
220.055
217.347
225.99
239.597
217.757
222.876
222.982
222.852
217.261
217.831
217.369
221.873
217.753
216.933
234.836
238.777
217.697
233.947
217.079
218.037
219.322
218.059
221.481
218.383
224.464
217.231
217.308
217.686
217.193
217.676
219.448
218.699
217.453
217.444
224.239
217.432
217.608
219.679
217.628
218.002
219.226
217.556
217.331
218.417
217.684
233.087
235.432
232.486
219.206
218.016
216.925
217.369
224.816
217.763
229.067
217.37
219.195
217.791
218.66
217.612
217.424
222.115
219.439
220.906
217.56
217.495
217.281
217.226
217.374
230.051
218.566
227.318
221.748
222.701
231.501
220.018
225.243
217.373
220.601
239.026
218.014
217.31
219.256
223.025
217.838
215.584
217.701
219.93
214.386
218.53
219.927
215.705
217.459
217.256
217.406
217.501
217.662
217.412
216.112
227.613
217.599
219.044
226.926
217.554
217.172
232.703
226.553
217.383
217.504
217.397
237.872
217.541
218.675
217.434
220.267
240.268
219.657
220.605
217.444
221.615
217.025
217.244
228.666
217.38
217.302
217.739
234.887
234.791
217.918
224.916
215.225
231.245
224.227
217.409
217.337
217.188
217.254
220.717
217.101
217.514
217.268
218.809
221.455
229.043
217.368
217.219
220.786
217.753
218.73
217.463
223.104
229.425
217.956
217.186
223.861
217.601
217.667
224.492
231.903
230.644
225.351
219.774
217.153
217.847
219.27
217.548
214.138
216.71
217.01
217.737
220.105
217.416
226.484
219.041
223.361
217.966
218.699
228.411
228.08
230.709
218.123
235.045
232.34
220.449
221.494
217.796
220.698
220.277
217.394
217.69
217.761
220.609
217.457
228.571
224.65
217.159
218.154
238.547
218.214
218.017
217.53
218.926
228.902
224.871
220.036
217.325
217.421
217.147
218.889
229.005
218.33
218.495
228.127
217.016
221.674
226.965
220.146
217.75
226.593
217.395
213.948
217.236
217.363
218.073
221.879
218.239
217.315
220.269
217.544
222.178
217.514
217.08
229.294
235.607
229.93
231.045
230.774
233.375
217.695
236.294
222.586
224.189
224.352
217.295
219.965
217.987
216.987
238.765
217.391
217.943
217.527
228.027
224.36
217.429
219.334
217.19
217.544
237.683
217.176
229.261
220.698
218.817
217.703
222.268
233.522
218.041
217.616
217.366
220.6
225.661
220.777
217.112
217.547
217.413
217.212
218.495
217.777
230.877
227.74
217.794
217.334
217.906
217.403
218.766
218.192
216.987
233.429
217.207
214.358
217.761
217.411
220.447
221.558
217.159
217.465
217.192
226.217
217.123
229.724
228.197
217.644
217.126
223.219
217.238
220.479
217.34
217.5
239.172
222.223
214.103
217.21
221.036
223.368
217.357
220.184
226.904
219.993
218.951
216.853
217.519
221.448
217.388
219.903
217.435
217.87
217.331
217.505
217.289
220.76
217.386
217.686
217.412
222.99
223.243
217.497
215.66
217.259
217.359
217.409
243.199
224.074
217.118
217.554
217.581
220.287
217.173
217.447
219.124
221.446
217.352
228.535
217.533
238.732
217.452
221.472
220.535
232.063
216.787
234.015
217.585
217.264
219.94
219.951
220.215
217.309
217.496
217.882
217.521
218.186
221.201
219.161
230.538
235.709
217.371
236.252
214.283
217.532
223.848
219.527
217.815
218.133
230.847
223.653
217.451
217.421
217.78
217.328
223.851
217.426
242.651
217.403
218.81
224.27
217.515
217.354
224.556
217.109
214.832
217.225
221.381
217.561
214.392
217.189
218.89
218.654
226.171
217.454
217.328
217.523
220.351
229.52
217.37
218.047
220.581
217.509
217.443
217.614
217.376
216.622
217.263
217.337
237.849
217.736
218.349
223.363
217.511
223.27
217.554
218.626
230.506
233.308
227.989
217.523
217.743
217.433
221.515
225.989
219.82
220.376
217.262
217.899
227.3
217.467
218.018
217.489
217.159
218.536
234.421
217.459
218.149
218.084
225.62
229.745
217.076
217.238
221.895
235.344
217.96
246.693
234.453
227.69
220.569
228.478
222.182
218.883
227.691
217.199
217.353
221.185
219.51
220.267
223.449
223.372
222.745
218.871
230.774
217.571
217.539
217.749
229.442
218.187
217.277
218.036
217.428
220.26
217.602
218.749
225.801
217.288
226.776
222.048
216.55
217.389
235.31
220.888
229.327
216.903
217.657
218.047
221.329
220.719
227.574
219.672
217.401
218.521
217.479
217.432
232.566
226.194
216.958
228.552
235.53
217.649
229.818
225.123
217.501
217.112
219.185
217.504
230.722
217.238
233.132
217.569
226.749
239.466
219.258
245.571
217.464
217.558
225.382
229.694
217.456
217.293
224.049
217.374
247.756
217.566
221.746
218.075
221.356
217.315
225.591
217.666
227.479
217.569
217.019
217.351
217.354
222.027
217.377
217.311
217.681
234.814
242.567
220.515
219.142
217.075
223.753
217.356
217.285
217.536
240.038
218.383
217.42
220.085
217.478
217.548
217.906
217.327
220.816
217.37
217.914
214.345
224.767
217.588
217.571
217.596
241.403
228.732
220.067
223.957
229.909
218.988
226.341
216.977
222.562
215.796
223.805
217.646
228.631
226.847
226.369
224.052
223.757
218.119
225.863
229.867
225.853
217.339
217.378
217.377
217.476
220.302
217.483
221.246
230.362
217.773
217.414
217.944
241.386
217.401
215.711
217.379
224.907
217.219
237.095
217.253
217.441
217.307
219.054
218.238
228.664
217.242
221.763
222.14
217.316
219.929
221.822
241.112
219.178
216.623
234.286
221.22
217.73
217.18
217.515
218.108
219.762
217.37
231.371
214.512
217.113
221.322
217.517
220.671
238.063
232.083
217.808
217.263
218.686
222.492
233.463
217.281
217.385
217.738
236.105
214.265
214.738
224.327
227.834
218.992
236.047
217.303
218.324
217.413
227.663
218.265
224.701
217.519
217.458
223.59
217.61
217.566
223.33
221.693
217.515
217.218
217.341
217.398
229.692
222.333
217.432
217.962
217.308
218.068
217.147
217.629
217.475
236.741
217.983
222.624
217.243
217.622
236.8
217.345
217.866
217.582
216.767
217.2
221.296
220.713
214.481
217.805
217.473
217.146
217.195
227.4
224.097
217.249
217.509
225.427
225.938
217.261
233.432
222.735
217.252
217.465
219.292
220.047
219.833
225.515
218.535
219.733
217.74
226.202
221.49
238.378
217.548
217.634
228.047
215.143
219.765
217.019
217.416
217.103
214.275
224.028
219.087
219.409
217.103
217.776
229.628
227.172
238.134
223.827
217.308
217.307
217.575
217.61
218.807
218.666
221.929
226.98
217.207
230.982
217.277
217.791
218.968
217.347
217.587
217.443
217.203
220.786
218.108
217.528
217.378
218.846
216.875
218.25
217.816
220.195
217.383
218.136
221.092
218.023
217.277
217.303
221.913
225.387
220.245
217.748
229.393
217.18
220.115
217.415
229.354
217.443
218.979
217.51
217.29
217.356
217.341
226.323
220.251
217.442
214.881
218.279
217.248
219.887
220.241
217.862
217.265
220.004
239.137
223.799
217.416
221.89
217.301
235.481
220.236
220.787
220.166
228.695
235.329
220.091
217.378
218.696
218.942
221.286
218.103
227.304
232.347
217.437
217.484
239.716
236.081
220.156
217.515
220.339
226.157
217.184
224.041
217.515
231.171
221.564
232.02
217.141
217.664
217.543
237.583
217.642
217.464
217.627
217.249
217.299
217.266
227.115
217.455
217.437
217.544
216.841
218.698
223.403
220.523
217.16
216.232
218.529
218.383
222.246
220.102
217.178
217.469
217.503
219.856
216.08
218.108
223.612
217.752
217.352
217.675
229.277
229.462
217.162
217.647
226.965
217.405
228.861
217.498
231.44
222.096
217.658
223.028
225.732
222.4
219.551
226.375
217.329
219.86
227.805
217.924
217.435
217.24
227.686
217.52
228.295
221.368
217.533
236.121
221.552
217.322
217.466
215.819
217.716
217.521
220.005
217.35
219.774
217.927
218.994
217.407
226.196
217.082
225.947
217.384
241.905
218.016
217.226
217.385
217.404
227.464
231.657
217.247
217.347
217.712
230.389
226.922
217.475
217.668
217.994
217.543
224.713
234.327
217.275
217.483
217.141
220.404
217.673
230.746
217.435
223.252
218.745
224.566
219.011
222.038
217.314
227.382
214.211
224.852
218.533
217.143
217.674
220.293
224.923
220.742
228.89
229.717
216.892
217.485
217.506
234.376
224.126
217.55
220.223
217.668
221.296
219.433
217.259
221.522
229.703
220.181
220.198
217.174
217.83
224.389
228.717
217.786
217.105
217.468
217.393
217.993
217.185
227.254
218.025
217.759
228.899
220.379
216.85
221.282
216.915
220.238
222.848
215.889
238.141
220.315
217.302
217.302
219.625
217.542
221.524
224.686
217.541
224.152
217.343
241.561
217.434
217.636
226.243
235.2
217.402
235.231
219.939
217.357
231.223
219.496
216.224
223.07
217.471
217.341
219.885
217.645
217.49
218.569
217.724
218.884
220.886
219.858
223.738
221.126
232.823
220.819
225.468
218.248
214.159
221.874
221.112
226.7
222.124
217.445
217.765
226.672
226.036
230.684
217.131
221.589
236.508
219.943
218.707
219.409
217.316
217.287
217.01
217.554
217.775
219.266
220.012
217.261
217.123
217.295
229.888
219.299
216.874
221.644
217.587
226.296
219.858
220.12
217.615
217.67
222.922
219.049
219.926
219.884
238.124
217.578
215.539
218.858
217.705
217.203
226.777
220.777
217.188
218.005
227.464
222.569
219.401
217.266
217.744
219.178
221.659
234.181
219.634
217.371
217.451
224.497
217.362
217.661
217.984
227.646
224.99
225.406
219.16
218.619
217.399
217.901
218.277
217.82
226.47
223.465
220.872
230.68
222.382
217.088
225.006
220.678
217.466
223.703
223.081
217.499
233.934
234.682
230.077
217.382
217.246
217.357
217.756
217.593
219.916
217.841
219.709
214.655
217.29
217.902
217.738
217.277
228.903
218.976
222.544
225.103
217.784
228.601
217.216
221.914
217.648
223.647
217.423
228.554
221.824
220.889
220.477
233.814
217.24
219.839
217.478
217.961
219.142
217.331
223.989
217.391
217.413
233.616
231.913
220.887
217.62
217.361
217.334
233.899
225.189
224.786
218.093
223.745
217.829
220.967
217.463
217.207
217.877
217.408
219.498
219.006
217.214
217.435
214.765
224.56
217.29
221.098
217.213
219.007
231.289
217.451
214.249
226.435
217.317
217.685
222.74
219.75
228.923
238.5
217.121
223.14
217.23
234.523
218.883
220.535
218.524
217.922
231.697
217.045
224.033
217.281
217.178
238.128
223.084
233.707
217.459
216.454
217.34
216.919
226.064
219.874
219.066
230.497
221.509
217.252
217.299
235.878
231.444
217.4
233.6
235.4
217.033
224.36
217.707
217.563
225.665
220.087
224.734
217.453
219.593
217.623
217.629
219.877
219.271
223.782
221.654
219.937
238.071
217.404
217.271
219.697
226.379
227.46
218.728
224.526
214.556
215.558
221.873
223.84
217.885
217.895
227.252
217.02
217.343
217.763
217.433
225.196
215.565
217.979
223.392
217.397
215.47
217.44
218.306
216.975
217.278
224.361
219.115
229.835
217.575
222.737
225.171
224.006
216.226
217.369
217.413
227.633
220.189
217.926
226.851
223.829
219.542
218.043
217.98
218.062
219.009
220.861
221.065
215.416
217.316
217.984
217.094
217.295
215.011
217.26
217.257
220.995
220.403
227.848
217.409
216.836
234.165
217.205
218.747
217.09
226.538
217.586
218.783
218.722
217.422
218.486
217.317
232.369
215.564
217.358
237.523
228.26
217.336
229.319
217.05
221.465
217.575
217.812
222.953
219.363
220.216
220.933
218.831
225.855
217.126
217.614
222.719
226.829
226.448
218.144
226.766
218.949
219.978
224.784
217.049
221.23
217.631
220.509
218.069
217.503
218.671
219.762
217.596
217.337
221.382
219.725
218.545
217.758
217.413
224.011
234.297
237.823
217.758
217.855
238.636
231.842
217.254
233.745
217.336
229.834
228.753
226.121
228.299
214.096
217.62
220.18
216.447
221.153
219.414
238.235
217.224
223.121
215.802
217.549
225.125
221.427
218.867
222.168
216.226
224.639
218.71
218.407
217.859
217.802
217.482
218.077
218.429
217.198
227.522
217.286
226.317
217.09
217.122
219.502
217.334
231.824
217.586
232.551
235.979
230.515
230.704
228.27
217.402
219.923
217.436
220.675
224.096
217.873
217.82
217.501
218.332
217.656
232.72
229.414
221.179
218.579
217.091
217.066
231.48
217.374
217.986
224.304
217.564
217.339
224.028
218.03
230.091
223.477
227.291
217.274
227.648
227.039
219.633
217.619
221.443
217.505
231.551
217.098
217.185
214.388
217.425
222.193
214.738
217.556
217.588
220.196
217.652
234.915
236.526
237.013
217.378
219.323
221.799
217.884
222.158
223.188
217.13
238.115
217.443
218.085
231.124
218.329
217.638
214.523
217.592
239.833
219.87
217.505
217.071
216.816
217.761
217.023
223.852
217.62
222.273
217.399
219.826
220.41
218.201
224.335
222.811
221.296
217.561
217.341
230.295
220.521
214.43
220.049
217.144
230.515
217.117
224.671
217.273
217.868
223.318
222.733
217.618
217.155
217.356
217.385
241.664
217.558
220.593
226.313
216.782
217.401
219.964
226.513
217.412
217.396
236.069
227.799
219.662
217.835
233.457
217.326
221.296
224.564
217.395
217.57
217.494
234.519
217.492
217.468
219.994
223.497
220.097
221.123
217.848
217.67
217.692
217.369
220.892
217.73
217.459
223.966
218.233
217.847
227.672
217.315
218.157
217.808
217.457
216.89
217.73
217.508
220.91
220.566
222.389
217.286
217.69
217.263
218.558
226.712
217.404
217.702
226.902
217.648
217.945
228.584
217.001
217.523
223.048
217.557
230.341
221.348
217.286
217.497
245.462
217.483
234.613
217.452
221.789
229.326
217.452
222.223
217.474
238.756
223.628
217.337
223.096
220.847
217.523
228.92
226.501
222.477
227.97
217.363
221.424
217.292
217.482
217.233
218.228
228.525
217.968
217.414
228.133
223.183
218.016
226.272
217.137
222.944
217.124
218.756
217.579
225.377
229.516
231.315
214.2
219.118
225.487
217.661
217.545
217.434
220.051
217.408
220.538
221.738
220.854
219.548
229.757
219.812
217.551
217.574
217.778
221.716
217.297
221.689
218.891
222.012
225.961
217.158
220.571
217.794
217.568
221.146
230.953
228.321
223.521
222.069
217.28
217.447
216.992
220.319
223.911
217.643
220.178
217.322
217.168
217.987
235.286
217.801
219.238
217.44
225.25
226.461
217.362
220.399
225.264
217.728
217.339
217.372
217.317
217.298
219.202
223.071
217.545
217.275
219.176
230.254
221.512
233.767
221.438
217.308
224.985
214.363
218.96
218.648
217.56
222.892
223.316
214.313
217.331
227.262
219.434
217.733
217.269
217.459
219.404
217.975
222.195
234.097
217.23
217.131
224.249
225.883
217.341
218.227
217.41
217.548
217.32
217.379
224.76
220.825
217.707
224.346
220.782
223.977
230.098
217.492
221.196
217.482
225.281
217.295
227.144
236.688
217.418
218.172
222.227
217.241
245.179
217.689
224.241
219.038
217.393
218.555
218.815
221.02
217.474
239.249
224.432
235.585
216.328
217.649
224.07
231.683
217.152
217.135
222.648
235.087
217.614
219.283
225.311
217.868
217.3
217.588
217.734
219.8
221.132
216.262
220.352
217.065
230.086
217.795
230.848
214.182
218.912
217.416
221.045
232.018
219.18
217.225
222.535
219.583
217.949
222.467
223.504
217.503
217.255
216.73
217.326
219.901
221.506
217.148
217.23
228.679
228.203
217.427
219.583
217.264
226.474
217.306
217.094
224.627
226.431
217.63
224.955
220.47
217.238
237.541
226.788
217.219
217.039
217.504
231.963
215.095
220.76
228.508
217.232
219.465
238.919
217.579
216.796
219.099
230.736
217.686
227.673
220.169
217.285
217.085
228.18
217.145
222.989
223.255
219.705
217.203
221.827
217.77
224.365
227.356
217.502
228.377
217.474
216.958
218.511
223.08
217.414
218.12
217.238
217.49
225.317
217.743
219.86
227.268
217.47
221.029
217.245
216.679
217.909
217.124
217.445
217.404
221.806
215.088
217.933
217.567
217.198
226.443
227.013
217.562
217.333
215.804
218.853
221.62
221.088
217.384
220.39
217.441
217.429
217.262
218.945
217.558
221.033
217.431
219.629
214.25
218.732
227.262
214.199
217.369
220.009
217.273
217.383
227.507
224.972
221.93
217.345
227.648
217.618
226.103
217.423
217.384
218.84
217.402
217.279
217.395
223.289
220.682
217.334
217.438
216.919
223.358
217.126
218.347
217.758
227.855
217.209
217.437
220.722
228.538
218.045
220.381
219.713
223.998
219.712
216.948
218.955
218.238
217.155
224.495
231.578
220.377
217.419
217.288
219.796
217.121
217.128
233.464
229.405
226.931
227.515
217.609
231.741
217.528
217.52
229.452
236.081
217.836
217.458
221.738