# vtk DataFile Version 3.0
vtk output
ASCII
DATASET POLYDATA
POINTS 10000 float
-47.3648 -44.3226 8.83068
-43.5612 -39.4912 12.6946
-43.135 -41.9066 11.2817
-46.227 -39.2776 14.9102
-42.8809 -40.5279 11.8408
-45.5589 -39.2477 14.1969
-44.8956 -43.9231 10.0162
-43.3146 -40.8771 11.7313
-43.3123 -40.4362 11.7537
-44.7453 -43.7839 10.4911
-46.2826 -44.1882 9.70683
-44.6581 -43.7555 10.4376
-45.9796 -39.5896 14.5158
-43.0056 -39.1856 12.4618
-44.0467 -39.196 13.4147
-42.7712 -40.4485 11.7695
-48.1201 -44.5972 9.27667
-45.1409 -39.2273 14.1176
-42.7614 -40.1681 11.9386
-43.1694 -39.4801 12.2743
-53.0105 -44.3338 7.62822
-45.6622 -39.5048 14.3165
-43.9617 -39.3881 12.8828
-47.7628 -44.5299 8.85216
-44.8391 -43.8023 10.5677
-46.2879 -44.1841 8.91311
-50.0932 -44.8379 8.46318
-47.0789 -39.6534 15.4077
-45.0357 -43.6124 10.26
-43.3432 -39.5695 12.8361
-50.2578 -44.415 7.89524
-42.7594 -40.5174 11.7748
-46.0729 -44.0706 9.94335
-44.9969 -43.9241 10.0958
-42.4194 -39.5879 11.6363
-43.8545 -39.5314 12.8822
-44.0626 -43.4163 10.4528
-43.2701 -40.3173 12.367
-42.7408 -40.663 11.894
-44.0495 -40.2202 12.9999
-51.9284 -44.9768 8.36289
-47.9194 -44.2573 8.7975
-43.2381 -40.476 12.269
-43.7715 -41.371 12.0105
-42.8121 -41.309 11.5595
-42.7686 -41.7121 11.3443
-43.1091 -41.721 11.2992
-43.1466 -41.6098 11.3367
-42.5648 -39.0474 11.9458
-49.1352 -44.5349 8.00765
-43.2186 -39.3973 12.8556
-45.4708 -43.9942 10.6563
-44.9639 -43.7049 10.4809
-46.8466 -44.5431 9.04074
-43.6276 -39.5109 12.9315
-49.6878 -44.8453 9.658
-44.5974 -39.1716 13.9137
-46.1809 -44.0732 8.66275
-46.7859 -44.5117 10.217
-42.7813 -40.1914 11.8133
-44.0762 -43.5363 10.4339
-45.7707 -44 10.4315
-44.2169 -43.4233 9.31222
-43.2763 -42.1077 11.2285
-45.4085 -43.9004 10.5176
-45.2333 -44.1008 9.57069
-47.3946 -39.6441 15.6731
-43.5309 -42.4684 11.0879
-51.3299 -38.769 17.889
-46.574 -39.7048 14.8145
-44.3233 -39.6161 13.4404
-48.7593 -44.6549 9.25065
-43.8939 -39.9363 13.354
-49.3845 -44.8448 9.50525
-46.603 -39.5209 14.9565
-50.7633 -44.9246 7.79222
-42.6678 -40.1942 12.0877
-47.8076 -43.4831 7.87539
-43.4055 -40.3629 12.198
-53.2133 -44.2194 7.35501
-49.1084 -44.6887 8.75592
-50.5981 -44.2849 7.46689
-44.1482 -43.3933 10.6374
-43.762 -39.9672 12.9865
-42.7121 -40.0374 11.6533
-44.6336 -38.977 13.8965
-44.4564 -43.7085 10.5675
-42.9086 -41.5958 11.1962
-51.4928 -44.6906 8.77324
-45.4553 -39.5816 14.2361
-46.0493 -43.677 8.76905
-45.8515 -44.0509 10.3101
-43.0094 -39.9458 12.4248
-53.7924 -38.619 19.1285
-47.537 -44.5605 9.9206
-42.955 -42.2532 10.7007
-48.9547 -44.3936 8.02001
-52.9827 -44.902 8.48017
-42.8651 -40.0352 11.8147
-47.4586 -44.3044 8.37116
-45.1268 -44.3414 9.9443
-45.8137 -44.4363 9.79473
-47.0381 -44.4633 8.93946
-43.2366 -40.2634 12.3293
-49.5958 -45.278 9.21725
-48.5745 -44.9592 9.47202
-44.0604 -39.5745 13.2108
-43.0152 -40.7387 11.7839
-43.8922 -40.762 12.1828
-43.372 -39.3064 12.9545
-43.9896 -43.452 10.561
-43.1727 -39.7284 12.1973
-42.7733 -38.8395 12.6669
-43.7402 -40.4212 12.4368
-44.4098 -43.504 10.6601
-42.6399 -41.1902 11.3731
-47.7764 -44.6948 8.68394
-42.9425 -42.2768 10.9143
-43.5267 -43.5155 9.70978
-42.7753 -41.8659 10.6956
-44.1409 -38.7564 13.5945
-48.0794 -39.9218 15.573
-43.2409 -41.8689 11.3631
-43.1762 -39.9467 12.0672
-43.8964 -43.2931 10.4579
-52.8446 -44.749 8.42315
-42.9325 -40.836 11.8792
-45.4999 -39.5512 14.2208
-45.0303 -43.3619 10.1638
-44.6454 -43.2914 10.7105
-42.6723 -41.3898 11.1518
-52.9942 -45.0246 7.83434
-46.6726 -44.115 9.88776
-43.0723 -40.658 12.0213
-43.1405 -41.2445 11.4287
-49.8578 -44.9684 8.86831
-43.4901 -42.8635 10.8979
-42.9822 -40.3048 11.8036
-42.9144 -39.8225 12.1544
-44.5129 -43.7696 9.93692
-43.0284 -42.0027 11.3183
-55.0528 -44.019 7.43235
-43.9958 -39.4667 13.2101
-48.2276 -39.4316 16.6823
-43.779 -42.5684 10.9336
-46.1037 -39.5179 14.5229
-45.0858 -43.8523 9.6954
-49.5559 -45.0772 8.56066
-45.1924 -43.9259 8.84676
-46.8426 -44.6453 9.07935
-43.5136 -39.4388 12.8211
-52.2691 -44.3983 7.55464
-53.9288 -43.7298 6.62108
-47.1192 -39.5712 15.4997
-42.6889 -39.5129 11.9177
-42.7015 -41.2154 11.1585
-46.2829 -43.5579 8.38447
-43.1549 -42.0775 11.0708
-43.5366 -42.3253 11.0553
-42.6982 -39.4665 11.8373
-44.4329 -43.526 9.87869
-43.1591 -40.9596 12.0458
-50.0896 -44.4952 8.17963
-44.2864 -40.4858 12.5524
-45.3283 -39.5242 13.9782
-46.7444 -39.8139 14.9976
-45.4068 -43.974 9.89799
-46.3002 -44.5327 8.99481
-43.9826 -42.3749 11.745
-51.2786 -44.8253 8.71428
-42.7929 -41.6104 10.8029
-45.4834 -44.7182 10.1447
-47.453 -39.8032 15.6845
-48.8766 -39.5615 16.9278
-43.5949 -42.6408 11.1951
-43.6962 -40.6887 12.2874
-43.8304 -43.6962 9.74612
-43.3936 -42.4322 10.8076
-42.9941 -42.6632 10.6305
-46.1989 -44.283 10.0411
-43.0625 -42.0846 11.1253
-42.7005 -41.7579 10.5957
-45.5294 -44.154 9.94773
-45.009 -43.8314 9.52332
-43.69 -42.4703 10.9677
-43.2394 -39.9062 12.3597
-44.0049 -43.0974 10.7861
-42.8336 -39.7534 12.1022
-43.5094 -39.0658 13.1958
-44.0006 -42.7201 10.7812
-42.3575 -41.6879 10.9217
-43.0086 -40.9046 11.4811
-43.6903 -42.1658 11.2917
-42.9219 -39.6087 12.4431
-48.0511 -39.7573 15.9795
-43.8147 -42.2223 11.2289
-55.8659 -44.3972 6.69212
-45.2603 -39.2833 13.9904
-43.8111 -40.4622 12.5828
-44.4675 -43.4094 10.5686
-45.415 -44.1538 9.89406
-43.2314 -40.5092 12.5277
-48.2936 -44.5657 8.8214
-49.9827 -44.611 7.66795
-43.1781 -39.0691 12.4041
-42.4239 -40.0509 11.7853
-44.6807 -43.9445 9.64302
-44.427 -43.3698 10.4593
-45.12 -43.6552 10.2121
-48.6188 -39.617 16.1553
-45.7849 -43.4584 8.39612
-53.1736 -44.5877 7.66928
-43.8386 -43.3419 10.0637
-44.134 -43.68 10.1683
-44.8911 -44.4934 9.4526
-51.9914 -44.8165 8.99841
-42.5127 -41.9531 10.464
-43.3644 -42.1452 11.0524
-43.6192 -42.0258 11.7834
-51.7454 -45.0522 8.64698
-42.9477 -39.9062 12.151
-42.2553 -39.4619 11.7497
-49.2402 -44.9838 9.34126
-42.8604 -41.7475 11.4601
-42.7915 -41.3928 11.3164
-44.5333 -43.7908 9.82911
-49.351 -44.5527 7.98433
-46.5636 -44.2914 10.1636
-44.1494 -43.2425 10.6057
-42.6522 -41.061 11.3841
-43.7849 -39.3652 13.162
-42.9745 -41.9608 11.0312
-44.1547 -43.3996 10.6706
-48.7235 -45.1144 9.51117
-44.0709 -43.7205 10.2102
-47.8912 -44.6806 9.21615
-45.2022 -43.7942 10.6902
-43.4461 -40.1871 12.7819
-44.1627 -43.8519 10.1263
-48.1886 -44.7124 9.75501
-43.3224 -41.2201 11.6346
-42.9656 -41.3482 11.6146
-50.7288 -44.6511 9.49778
-43.3565 -39.3175 12.5912
-42.8785 -41.1828 11.8039
-50.4233 -44.4977 7.38795
-46.1963 -44.1143 10.0242
-43.0223 -41.2633 11.4703
-45.7485 -43.4682 8.50073
-44.2084 -43.4711 10.3459
-44.7218 -43.2301 11.2861
-47.1407 -44.6936 8.65398
-44.1074 -42.673 11.4655
-43.6802 -40.5539 12.0742
-50.9912 -44.9754 8.09372
-50.7536 -44.054 7.7425
-43.6526 -42.8934 10.4444
-44.2995 -39.3473 13.6598
-47.9433 -39.8518 15.9585
-47.3642 -44.9203 9.48772
-46.6106 -44.6382 10.1631
-44.3682 -42.946 10.7807
-52.891 -44.5042 7.87993
-44.8163 -39.303 13.7213
-43.5672 -40.5607 11.6546
-44.5494 -43.5497 10.6538
-49.8259 -44.6233 8.39432
-43.7784 -39.6362 12.7044
-54.5476 -44.905 7.44359
-45.9813 -44.1931 9.45758
-46.2192 -43.7149 8.69408
-44.7604 -39.1354 13.7013
-43.4568 -43.2072 10.1698
-44.0784 -39.1735 13.3457
-43.9116 -39.805 12.8479
-43.0112 -42.7558 10.5535
-48.9399 -44.9654 9.66221
-42.8834 -39.9974 12.0151
-53.5758 -44.2932 7.30016
-46.4065 -44.331 10.3154
-43.7538 -43.0201 10.717
-44.8244 -43.8872 9.74941
-47.4367 -44.7945 8.5713
-51.9629 -38.6356 18.3183
-44.0323 -42.625 10.8641
-42.6747 -41.1733 11.5829
-45.5714 -39.0394 14.0495
-42.5125 -39.6772 11.7514
-48.5655 -44.5397 9.26461
-42.8049 -40.4241 11.3888
-43.2993 -42.2821 11.0392
-45.4177 -43.6824 10.1673
-42.8983 -39.7338 12.1008
-44.4985 -38.7812 13.984
-43.5644 -42.7241 10.6795
-50.9177 -44.8016 8.53198
-46.6165 -44.2882 10.1818
-48.2474 -44.6739 8.73359
-44.412 -43.4155 10.4261
-42.7659 -40.5699 11.5258
-51.9019 -44.1999 7.37453
-43.9014 -38.9629 13.2033
-42.9503 -39.8371 12.2988
-46.8465 -39.637 15.1572
-43.8164 -39.8396 12.6774
-44.787 -38.9232 14.0209
-42.2128 -38.7769 11.6705
-45.6904 -44.3894 10.262
-43.3145 -39.961 12.3937
-53.1268 -45.4443 8.41828
-51.2646 -44.4507 7.69505
-44.9546 -39.0038 14.1981
-44.7948 -39.641 13.7324
-43.4541 -41.76 11.5386
-44.8068 -43.0678 11.0086
-43.1409 -40.7357 11.5997
-42.7655 -39.1844 12.3393
-43.975 -38.3285 13.3983
-44.1742 -43.566 9.65638
-45.9353 -43.792 10.5601
-43.8172 -43.3949 9.80307
-43.4642 -39.5263 12.8872
-42.8143 -40.2516 12.0797
-45.9711 -39.4798 14.339
-46.6128 -44.1821 9.984
-44.9173 -43.4207 10.8169
-51.2722 -44.8407 8.60786
-42.885 -42.0127 11.0132
-48.1959 -44.4207 8.76005
-54.7426 -42.9953 6.0538
-49.9491 -39.0051 17.4399
-46.439 -39.5805 14.8118
-42.8594 -40.835 11.9418
-47.3586 -44.2133 8.72158
-43.86 -42.9891 10.8614
-48.7669 -44.9355 9.65913
-44.4841 -39.1706 13.4247
-46.5048 -44.1571 10.341
-54.2237 -45.1258 8.68002
-43.4676 -41.5245 11.8662
-45.0636 -43.6795 10.5334
-47.8767 -44.8784 9.45279
-43.5458 -39.1225 12.7276
-44.5164 -43.5263 10.3008
-44.5595 -39.0747 13.9902
-46.05 -44.7208 10.1663
-48.6416 -39.6752 16.3251
-45.1348 -39.1972 14.1947
-43.6446 -38.727 13.1671
-44.5477 -43.6988 10.4191
-44.6751 -43.7831 9.95764
-45.1661 -43.4705 10.6737
-50.9183 -44.3221 7.85194
-43.1213 -41.2698 11.4807
-43.2038 -39.2019 12.6288
-45.436 -43.8036 10.1781
-45.5338 -43.9998 9.90145
-46.6586 -44.3677 10.1435
-45.0641 -43.7876 10.4675
-47.6553 -44.5049 9.54125
-43.6279 -42.9935 10.5051
-49.0877 -35.3775 26.7306
-43.7852 -43.0684 10.4639
-46.9811 -39.5137 15.743
-54.4184 -45.0385 7.63609
-46.5518 -44.314 9.4184
-47.4692 -39.8379 15.8589
-43.0106 -41.8016 11.5086
-47.5191 -44.3136 9.60583
-45.4009 -39.3733 14.405
-42.4685 -41.0822 10.8746
-43.4269 -40.4026 12.6361
-45.5265 -44.0335 9.49708
-43.0672 -40.5896 12.1869
-51.5754 -44.6139 9.37926
-49.9004 -39.0237 17.4209
-45.5182 -43.8554 10.3569
-43.9164 -39.3274 13.1566
-46.6528 -39.5351 15.1013
-43.2137 -38.2927 13.1529
-42.6833 -39.6031 12.0502
-48.2952 -44.3983 9.11193
-47.5445 -39.877 15.4568
-45.4275 -44.2189 9.76264
-52.3833 -38.5213 18.4541
-45.8512 -39.1514 14.6202
[...]
POINT_DATA 10000
SCALARS t float 1
LOOKUP_TABLE default
219.423
213.695
210.696
214.655
211.91
214.378
212.117
211.57
211.664
210.929
213.901
211.037
214.612
213.376
214.22
211.75
216.35
214.445
212.223
212.965
228.008
214.524
213.799
219.213
210.774
218.988
221.745
214.59
211.584
213.929
226.259
211.752
212.557
211.933
211.816
213.847
210.87
213.137
212.044
214.048
222.189
219.633
212.917
212.218
211.263
210.824
210.762
210.848
212.479
225.382
213.969
210.753
211.032
217.958
213.949
214.457
214.435
220.872
211.8
211.909
210.907
211.303
216.658
210.579
211.045
214.784
214.573
210.297
213.38
214.678
214.258
216.504
214.397
215.182
214.622
226.674
212.6
227.035
212.728
230.281
219.801
229.737
210.414
214.052
211.671
214.345
210.656
210.6
219.573
214.55
220.225
211.557
213.31
212.967
212.749
210.199
225.373
221.282
211.931
222.819
212.47
213.361
218.657
213.058
216.623
215.281
214.124
211.724
212.628
214.019
210.557
212.789
213.796
213.22
210.436
210.992
220.387
209.897
213.947
210.312
214.204
214.639
210.853
212.488
210.833
221.744
211.968
214.514
211.853
210.424
210.569
225.952
212.88
212.333
211.062
218.945
209.838
211.843
212.738
212.536
210.734
229.382
214.119
213.986
210.037
214.559
214.054
221.037
219.724
217.682
213.844
228.687
236.658
214.569
212.296
210.632
223.142
210.278
210.258
212.124
212.92
212.368
223.991
213.4
214.356
214.679
212.812
218.341
211.537
219.929
210.103
211.764
214.607
213.918
210.492
212.898
213.7
209.932
210.287
212.108
210.368
210.629
212.497
215.144
210.098
213.121
210.027
212.641
214.181
210.093
210.028
211.217
210.731
213.364
214.565
210.63
234.839
214.309
213.537
210.695
212.807
213.516
219.398
227.953
213.223
211.928
214.363
210.962
211.707
214.473
223.2
227.478
211.919
211.624
215.485
218.085
210.928
210.258
211.606
220.256
212.719
212.017
216.019
211.022
210.85
213.205
225.543
211.895
210.517
211.044
214.117
210.211
210.33
215.058
211.493
216.701
210.621
213.917
211.727
213.722
211.382
211.342
215.414
213.534
211.726
230.182
212.166
211.126
222.415
211.183
210.972
220.651
211.087
212.393
224.294
227.675
210.883
214.368
214.596
215.128
211.867
210.18
225.93
214.221
211.483
210.498
222.345
213.688
228.715
215.41
220.743
214.166
211.577
214.144
213.841
210.485
214.316
212.41
230.598
211.58
210.144
213.706
221.206
213.033
209.958
211.329
214.176
211.912
216.426
211.209
210.197
211.856
212.629
214.423
210.25
221.193
211.867
220.006
211.037
211.367
230.386
214.035
213.049
214.615
213.658
214.391
212.147
211.58
213.18
221.5
227.708
214.515
214.357
211.175
210.473
211.414
213.196
214.018
214.322
211.11
213.374
213.944
212.546
214.44
212.334
210.278
220.631
210.152
219.863
241.762
213.615
214.675
212.137
220.239
209.851
214.307
214.068
211.571
219.86
211.851
210.944
215.346
213.693
211.372
214.49
211.783
214.358
214.506
214.042
211.058
212.425
210.691
226.584
211.14
213.636
211.816
212.793
211.937
211.079
214.841
210.69
217.542
210.827
214.592
227.182
215.577
214.621
211.103
214.474
214.646
210.188
213.709
215.236
212.745
216.069
213.625
211.427
214.064
214.621
214.133
212.578
217.394
214.618
213.581
212.945
214.607
213.438
212.149
209.931
211.595
214.1
212.649
210.345
213.903
211.093
213.144
214.678
213.26
213.113
211.97
213.398
212.394
221.407
210.595
231.563
214.078
220.131
227.651
211.013
213.831
210.845
211.251
227.917
213.965
210.021
211.806
210.332
211.492
214.077
211.472
215.743
210.597
214.58
214.551
227.841
211.769
215.913
211.635
220.501
212.037
211.543
219.599
209.801
210.516
210.919
214.439
211.485
217.446
211.957
212.03
214.21
209.955
221.32
210.849
210.897
211.494
211.664
212.582
217.993
210.419
211.403
209.913
213.926
211.34
224.549
211.364
210.856
213.051
214.344
211.71
223.798
222.578
213.797
218.951
223.324
218.834
210.099
211.844
214.492
214.633
213.631
211.71
210.258
210.636
210.183
214.959
210.119
211.275
212.007
225.951
212.54
210.881
214.326
210.463
211.881
225.786
224.796
210.738
214.45
210.981
221.347
211.407
213.461
214.659
228.352
214.212
212.613
218.286
212.693
216.797
229.051
213.999
210.22
212.073
213.532
211.189
210.752
212.69
214.263
214.574
211.771
234.705
210.967
217.402
221.573
218.532
209.959
210.129
214.705
212.438
212.385
211.295
216.419
214.697
219.688
213.751
214.468
212.699
227.206
211.41
214.209
211.971
212.944
227.083
214.178
213.745
237.38
216.776
218.439
222.381
227.143
211.181
211.948
213.813
212.202
213.491
210.567
209.86
214.02
209.786
221.836
217.965
224.223
213.08
227.498
214.784
214.414
216.922
212.975
213.346
211.586
212.812
210.878
211.977
213.135
214.138
210.789
215.326
214.728
210.965
211.328
219.62
210.214
210.378
212.68
214.264
214.224
210.484
210.33
213.51
217.904
214.334
212.32
212.379
212.728
217.42
235.803
209.789
214.242
215.603
213.847
214.492
210.422
214.194
213.575
210.469
211.256
227.397
232.113
212.925
226.698
210.937
210.049
211.298
210.873
212.512
210.213
216.032
212.224
210.702
213.081
214.451
212.502
210.824
210.678
212.568
213.83
215.635
211.865
210.876
211.063
214.057
210.358
211.293
212.259
214.056
210.671
211.963
225.353
227.714
224.825
210.745
210.202
212.061
214.296
217.465
210.058
220.888
214.226
210.898
213.674
210.322
210.401
213.776
213.457
210.667
211.85
213.275
212.655
214.631
212.163
212.826
222.703
210.619
219.665
212.454
213.884
225.011
211.531
217.273
214.465
212.103
232.374
209.896
211.121
210.964
214.319
210.399
214.595
213.826
211.743
213.732
210.926
211.54
214.592
212.643
214.667
212.53
212.534
212.462
213.08
214.581
219.709
212.228
211.392
218.322
213.792
214.443
225.293
218.19
213.349
210.882
214.04
232.617
211.141
210.359
210.734
211.776
234.574
211.271
211.779
213.165
212.215
210.636
212.892
221.532
211.553
214.104
212.973
227.831
228.782
212.917
216.482
214.439
224.075
215.156
213.867
210.447
214.467
211.476
212.224
211.49
213.873
212.887
210.678
212.684
220.386
212.098
211.704
212.313
210.434
210.71
213.512
216.595
221.072
209.958
211.442
215.439
212.882
210.091
216.291
223.799
223.773
216.595
211.515
211.226
210.114
211.131
213.913
213.003
211.316
214.746
213.75
211.697
213.38
217.31
211.017
214.341
211.08
210.375
220.07
219.893
223.282
210.323
227.615
224.941
212.181
213.585
210.314
212.021
211.929
210.937
212.766
212.826
211.862
213.167
221.46
215.993
211.249
210.499
232.252
210.584
210.291
210.879
211.014
221.402
216.268
211.797
210.777
211.049
211.128
210.577
221.029
210.393
210.664
219.619
210.948
213.787
219.151
211.434
212.717
217.24
210.742
212.87
214.519
210.995
210.353
214.17
209.928
211.071
211.452
213.93
213.847
213.47
214.719
221.295
228.059
221.895
224.391
223.137
226.891
212.588
229.354
212.893
215.316
215.026
213.908
210.922
209.784
211.826
232.648
212.274
209.845
213.898
220.848
217.039
211.637
211.116
211.291
214.055
232.044
211.118
221.907
212.526
210.572
210.59
213.55
226.017
210.296
212.994
210.945
212.207
216.525
212.131
211.251
212.922
210.779
214.362
210.335
210.401
222.135
220.427
212.529
213.571
209.899
214.378
211.002
210.085
211.367
226.52
211.191
213.577
212.054
213.135
211.991
213.189
211.167
214.355
213.006
217.849
214.671
221.67
220.595
210.163
211.355
214.42
214.265
211.686
211.639
211.331
231.901
212.982
213.155
211.188
212.393
214.832
212.597
211.183
219.229
211.251
211.045
211.555
213.194
213.03
211.453
211.72
214.284
210.122
213.415
211.554
213.196
212.147
211.914
210.708
213.2
214.834
214.544
213.331
214.593
211.073
210.746
213.383
235.017
215.022
211.747
210.642
210.574
211.687
214.568
214.266
210.685
212.9
214.475
220.73
212.393
231.132
214.511
213.781
212.034
224.362
214.758
226.285
212.83
210.89
211.273
210.947
211.994
212.316
210.221
210.03
213.378
210.077
212.379
210.665
223.75
229.12
211.31
229.627
213.533
213.131
215.404
211.287
212.687
210.355
224.157
214.563
211.529
213.403
213.194
212.536
217.032
212.835
237.654
211.767
211.133
216.912
210.743
214.062
217.173
214.572
214.106
214.356
212.456
214.136
213.803
213.731
209.976
210.462
217.655
214.009
214.311
213.826
212.387
222.155
212.242
210.228
211.524
210.756
213.858
210.374
214.384
214.64
211.608
214.003
232.076
210.204
210.631
215.159
213.407
214.763
211.613
210.747
222.798
226.661
219.958
212.078
213.065
213.5
213.512
217.967
211.78
211.999
214.283
210.427
219.646
212.647
209.995
213.628
214.615
210.954
227.266
212.827
210.25
210.126
216.277
223.171
214.69
212.536
212.891
229.611
210.051
243.941
227.02
219.837
211.882
220.304
213.631
210.716
219.823
211.319
214.111
212.785
211.508
211.722
215.07
216.009
213.369
211.651
222.921
210.298
210.724
210.001
221.651
211.101
212.166
209.915
212.834
211.85
212.855
211.035
217.748
211.705
218.778
213.659
214.663
211.887
229.057
212.476
220.561
211.932
210.03
209.938
211.746
211.884
221.134
211.61
211.055
210.469
213.803
210.144
225.281
218.58
211.086
220.791
229.391
214.123
221.228
217.686
214.223
212.175
210.92
211.657
222.425
214.467
223.996
214.227
218.762
234.545
211.24
241.611
213.5
210.49
216.484
221.979
210.992
212.596
214.842
212.088
240.671
214.026
213.485
210.037
213.14
212.298
217.149
210.953
219.083
212.643
211.955
214.215
211.524
213.772
213.983
214.317
213.473
227.467
235.513
212.379
210.836
210.93
215.77
214.083
211.099
213.35
232.955
210.52
214.203
211.406
210.249
213.778
209.935
214.248
212.158
214.129
210.532
213.631
216.094
210.33
213.151
212.47
235.143
220.537
211.449
215.62
222.371
210.876
218.13
214.849
212.48
214.637
216.636
210.52
221.198
218.985
218.885
216.072
215.29
210.228
216.7
221.281
218.045
214.029
213.84
213.243
213.273
211.351
213.865
212.953
223.466
210.312
212.45
210.159
233.78
213.13
214.633
212.453
215.912
211.923
230.505
211.401
210.515
213.227
211.141
210.257
220.732
214.173
212.193
213.664
213.776
211.574
213.714
233.443
211.41
214.619
227.623
212.811
209.89
214.298
213.723
209.821
211.483
214.415
222.714
215.034
214.51
212.503
214.009
211.774
230.277
225.395
209.992
214.127
210.259
213.608
226.763
214.376
211.679
210.253
229.458
213.526
214.05
216.321
220.563
210.929
229.341
210.798
210.304
210.97
219.99
210.442
216.694
213.471
210.696
214.427
213.326
214.081
215
212.305
213.759
214.523
214.456
212.535
222.031
212.575
211.665
210.775
214.367
209.842
211.327
212.667
213.57
230.625
209.904
213.673
212.43
211.764
229.016
214.336
209.909
211.895
214.642
211.385
213.461
211.906
214.81
210.015
212.429
211.055
212.639
219.635
216.545
214.466
212.021
216.891
218.24
213.557
225.1
214.373
214.152
213.927
211.522
211.31
211.416
217.283
210.731
211.076
213.059
217.899
213.877
232.357
212.817
213.952
220.704
214.319
211.146
211.101
212.635
213.184
213.07
215.965
211.022
211.095
214.564
210.343
222.15
219.291
232.42
215.633
210.79
212.099
210.775
213.988
210.976
210.02
214.385
218.419
213.256
222.955
212.593
210.323
211.023
210.913
210.903
212.356
211.663
211.893
209.92
213.342
213.992
211.216
214.717
210.061
213.195
211.873
214.263
209.977
213.01
210.062
212.409
210.875
213.537
216.294
211.572
212.342
220.746
211.812
211.746
214.477
221.769
211.131
210.703
212.594
214.379
210.922
211.205
218.165
211.727
213.847
214.102
210.254
211.127
211.596
211.357
212.886
214.445
211.671
231.592
214.823
211.136
214.455
210.546
227.964
211.378
212.286
211.483
219.833
227.704
211.147
211.506
210.322
210.975
212.21
209.943
218.617
226.425
213.909
210.94
233.097
229.749
212.027
211.864
212.243
218.444
212.641
216.884
211.473
223.84
212.924
223.048
214.57
212.429
212.962
230.21
213.546
210.333
211.613
210.929
214.364
214.419
219.24
210.551
212.286
211.172
211.563
210.522
215.241
212.036
211.147
214.57
210.515
210.636
213.843
211.686
211.151
213.743
213.029
211.356
214.585
210.22
216.139
209.854
214.068
212.182
222.245
221.458
214.286
214.084
219.233
211.263
220.685
211.049
223.961
213.021
213.268
214.808
217.181
213.993
211.346
219.019
214.405
211.435
219.595
209.993
214.493
210.765
219.342
213.432
220.39
213.082
213.639
229.734
212.754
212.506
212.341
214.593
210.443
211.876
211.8
214.251
211.526
210.051
210.866
214.082
218.137
213.533
218.563
211.575
235.636
209.86
214.342
211.263
211.937
220.113
225.178
212.772
213.253
210.088
222.404
218.831
210.978
213.893
209.835
210.446
216.755
227.078
214.295
214.28
214.766
212.286
210.854
223.738
211.906
214.704
211.321
216.623
210.695
213.039
210.628
219.571
213.11
216.412
210.877
212.592
210.706
211.537
216.621
211.607
221.735
221.712
211.012
211.783
211.591
228.978
214.991
210.725
211.887
212.585
212.105
211.432
213.154
213.419
221.69
211.717
211.826
212.183
210.274
215.642
220.66
212.066
211.037
211.157
212.773
210.199
214.454
219.03
209.779
211.975
220.093
211.311
211.325
212.428
214.583
211.921
215.218
214.681
231.102
211.446
211.456
214.455
211.254
212.623
211.966
216.202
213.086
215.535
212.813
235.202
214.188
213.794
218.175
227.395
214.038
227.829
211.682
213.726
223.801
211.103
214.591
214.781
210.246
213.82
210.929
210.645
213.02
210.165
212.752
211.055
212.03
211.763
215.427
212.186
225.116
212.274
217.273
210.126
213.247
212.898
212.093
218.832
214.119
210.958
210.038
218.757
218.957
222.077
214.095
212.852
228.819
211.403
210.657
211.377
214.405
213.621
211.454
212.924
210.457
210.501
211.218
214.569
214.561
214.354
221.848
210.918
211.686
214.043
212.982
219.539
210.974
211.87
212.241
210.697
215.617
211.169
211.733
211.474
231.747
213.669
214.603
211.022
211.157
213.878
217.933
212.005
214.084
210.303
219.874
213.607
211.273
212.73
209.99
211.199
213.732
226.909
211.857
214.327
213.223
216.267
211.773
212.434
209.878
219.753
216.263
217.793
211.102
210.083
212.997
210.072
210.192
210.205
218.262
214.883
213.289
222.469
214.95
214.551
217.033
212.133
210.845
216.061
215.236
211.427
228.32
227.609
221.39
214.251
214.535
210.646
210.622
213.297
211.409
210.518
211.517
213.938
214.001
209.832
212.51
213.039
220.02
210.593
213.511
216.776
209.969
221.457
212.793
211.939
210.67
215.518
213.932
220.738
211.933
211.914
211.905
226.675
210.89
211.423
210.199
210.161
211.057
211.971
216.771
211.274
213.524
226.515
224.393
212.053
212.168
210.806
214.516
226.616
217.779
215.771
209.969
214.508
211.275
211.601
213.834
213.932
210.11
214.098
210.973
210.883
213.834
210.643
214.025
215.103
214.256
213.439
213.862
210.819
223.833
212.28
213.065
217.986
214.005
212.749
214.799
211.2
221.151
232.214
210.891
214.615
213.658
227.133
210.825
212.133
210.59
210.56
223.536
211.168
215.1
212.249
214.484
232.172
216.036
226.439
213.717
214.675
213.189
214.682
217.604
211.982
210.968
222.703
213.306
214.234
212.589
228.089
223.256
212.292
226.339
228.373
211.253
215.752
213.317
213.923
218.262
211.866
216.048
210.594
211.226
210.545
210.665
211.87
211.141
215.32
212.131
211.176
233.376
213.528
214.237
211.259
218.552
219.23
210.789
216.098
216.027
214.593
212.357
216.004
209.941
210.268
218.387
211.281
211.236
210.752
214.076
216.269
214.656
210.583
215.047
214.142
214.514
213.595
210.23
211.435
212.046
217.239
210.24
221.72
213.156
213.777
216.758
216.636
214.595
214.139
211.022
218.465
211.616
210.483
218.773
215.625
211.305
210.691
209.93
209.811
211.089
212.346
212.262
214.404
213.286
209.944
211.257
214.161
214.132
211.292
210.843
213.044
211.668
218.617
210.696
211.496
229.237
210.245
210.777
212.118
217.431
213.058
210.828
210.892
213.806
209.911
211.411
225.418
214.587
214.486
228.736
219.77
213.31
222.138
214.748
212.138
212.687
210.366
214.625
211.387
211.597
211.814
211.114
217.148
214.663
212.969
213.526
217.889
217.532
210.116
218.613
210.734
211.777
217.885
211.82
212.496
210.538
212.169
210.025
213.141
210.921
211.787
210.544
214.279
212.801
211.519
210.584
210.018
210.997
215.879
227.473
230.221
211.468
210.063
230.467
224.489
213.036
226.657
211.404
221.826
221.051
219.427
220.363
212.996
212.518
211.575
214.587
212.314
210.783
232.588
213.06
215.035
214.578
212.174
216.323
212.058
210.723
213.633
214.591
216.429
210.374
209.954
210.498
210.768
211.792
210.431
210.081
214.468
219.663
214.299
217.142
214.665
214.652
210.807
211.685
223.964
212.277
224.847
230.489
222.705
222.658
220.146
211.257
211.827
213.564
211.991
216.377
210.195
212.965
212.471
210.66
210.373
225.452
221.588
212.246
210.333
214.436
214.647
224.817
212.826
210.091
215.543
212.027
211.134
216.988
210.186
221.6
214.718
219.265
213.675
220.789
218.426
211.395
209.995
212.61
211.45
223.718
211.664
212.754
214.077
210.421
213.626
216.85
214.007
210.536
211.891
211.467
229.519
229.039
229.339
214.276
210.954
212.624
209.731
213.561
214.027
211.228
232.06
213.101
210.085
222.841
210.169
210.673
216.571
213.756
231.463
211.813
210.141
212.299
214.703
210.083
211.762
214.622
210.771
212.85
213.449
211.601
211.767
210.619
216.134
214.902
212.841
212.867
211.092
222.765
211.704
214.529
211.387
210.562
223.173
214.592
216.04
214.49
210.238
214.545
213.688
211.385
212.395
212.95
214.173
236.376
213.985
212.147
217.909
214.664
211.076
211.775
219.675
213.141
213.47
228.818
220.698
211.459
209.85
226.49
212.297
212.889
217.166
210.794
211.119
213.773
228.754
212.89
213.575
211.622
215.717
212.526
212.554
210.513
212.493
210.397
211.438
212.078
212.534
212.212
216.656
210.182
210.739
220.05
211.002
210.158
214.194
212.464
211.066
212.66
211.905
212.092
211.95
214.066
213.95
210.43
211.062
210.24
219.165
211.672
211.955
218.681
212.888
209.876
220.203
210.832
213.318
214.563
213.207
222.763
211.594
211.994
213.465
241.115
210.085
227.112
211.453
212.658
221.707
210.291
214.2
210.907
232.464
214.442
213.342
214.318
212.134
213.419
221.656
218.797
213.115
219.628
214.082
212.822
214.294
210.972
213.982
210.081
222.277
209.722
213.732
219.808
214.942
210.048
218.506
214.674
213.87
211.638
211.102
210.732
216.535
221.334
223.761
213.5
210.855
216.765
213.066
211.184
214.038
211.323
211.19
211.701
212.393
211.694
211.318
221.467
211.08
213.492
213.392
210.755
212.784
211.691
212.956
211.365
213.041
217.715
214.401
211.925
213.096
214.228
211.877
223.787
219.743
214.335
213.44
210.198
210.949
212.21
211.569
215.312
210.136
211.967
214.478
214.347
210.541
227.808
212.767
210.969
212.921
217.751
216.583
214.456
211.678
216.908
210.43
214.355
212.16
213.998
211.772
210.725
214.159
210.329
214.157
211.401
222.507
213.283
227.311
212.993
214.174
215.955
213.655
210.562
210.692
213.777
213.999
214.568
213.695
211.217
219.527
210.477
212.694
214.42
210.955
211.184
210.116
213.747
225.903
213.61
212.102
215.518
217.367
213.644
209.805
213.444
211.514
213.556
213.082
216.618
212.736
210.424
216.208
211.993
215.361
221.739
214.391
212.015
211.841
215.685
210.746
218.824
230.378
212.528
210.32
213.438
211.144
238.918
212.395
215.851
210.565
212.178
210.107
210.685
212.888
212.66
230.915
215.309
228.278
214.644
210.287
215.073
225.402
214.543
211.565
215.197
228.735
213.375
210.954
217.053
210.029
213.515
211.075
210.198
211.011
212.527
214.592
212.075
211.472
222.071
210.064
221.925
213.042
210.262
211.444
211.661
223.975
210.887
210.831
214.261
211.354
210.094
214.962
215.362
212.966
214.36
214.621
211.97
211.518
213.127
212.461
211.195
220.472
220.277
213.492
211.327
214.111
217.819
213.558
211.22
216.819
218.39
212.66
217.381
212.442
211.523
230.876
219.05
213.371
213.994
213.937
223.948
217.976
212.032
221.155
214.608
211.468
231.124
214.298
210.986
210.853
223.536
210.041
218.653
211.69
211.183
214.78
219.863
211.311
214.732
214.558
211.181
214.605
212.01
211.282
216.056
219.452
214.29
221.621
214.33
211.217
210.258
215.055
212.247
210.242
211.012
213.827
217.858
210.414
211.576
220.219
214.322
211.997
211.409
214.601
209.887
211.145
212.201
213.099
212.126
214.297
209.945
212.253
211.463
218.118
218.702
214.098
214.651
214.65
210.329
212.008
211.967
211.581
211.647
214.317
212.061
212.004
210.691
211.696
211.801
210.762
211.558
213.386
210.889
218.337
213.073
214.271
211.659
213.729
212.247
219.501
216.363
213.165
210.9
218.002
212.372
217.787
213.795
212.229
210.558
212.094
214.358
213.811
214.611
212.024
212.1
210.415
211.186
215.933
214.535
210.034
213.827
219.956
211.956
210.567
211.985
221.38
209.816
211.411
211.574
216.165
211.218
210.954
210.728
209.946
213.353
216.253
224.195
211.705
211.136
211.031
211.774
211.082
211.385
226.894
222.233
219.727
219.183
210.44
224.007
213.603
211.016
221.696
227.62
210.085
213.524
212.465
210.491
212.695